/*--------------------------------*- C++ -*----------------------------------*\
| =========                 |                                                 |
| \\      /  F ield         | foam-extend: Open Source CFD                    |
|  \\    /   O peration     | Version:     4.0                                |
|   \\  /    A nd           | Web:         http://www.foam-extend.org         |
|    \\/     M anipulation  |                                                 |
\*---------------------------------------------------------------------------*/
FoamFile
{
    version     2.0;
    format      ascii;
    class       volSymmTensorField;
    location    "100";
    object      C;
}
// * * * * * * * * * * * * * * * * * * * * * * * * * * * * * * * * * * * * * //

dimensions      [0 0 0 0 0 0 0];

internalField   nonuniform List<symmTensor> 
150
(
(1013.962 19.13123 0 0.7202899 0 0.7194797)
(1014.11 19.13417 0 0.7202819 0 0.7194803)
(1013.392 19.13147 0 0.7205843 0 0.7196547)
(1013.427 19.13182 0 0.7205774 0 0.7196612)
(1012.046 19.12852 0 0.7212488 0 0.7200473)
(1012.049 19.12879 0 0.7212459 0 0.7200501)
(1009.895 19.12607 0 0.7224161 0 0.7206788)
(1009.896 19.12624 0 0.7224161 0 0.7206788)
(1006.78 19.12436 0 0.7242897 0 0.7215891)
(1006.782 19.12444 0 0.7242898 0 0.7215894)
(1002.455 19.12379 0 0.727172 0 0.7228327)
(1002.458 19.12381 0 0.7271713 0 0.7228341)
(996.6623 19.12598 0 0.731481 0 0.7244703)
(996.6657 19.12597 0 0.7314797 0 0.7244724)
(989.187 19.13464 0 0.7377494 0 0.7265654)
(989.1901 19.13463 0 0.7377481 0 0.7265677)
(979.8767 19.15588 0 0.7466218 0 0.7291861)
(979.8791 19.15588 0 0.7466207 0 0.7291883)
(968.5535 19.19724 0 0.7588882 0 0.7324151)
(968.5552 19.19723 0 0.7588876 0 0.7324169)
(954.72 19.26329 0 0.7756212 0 0.736368)
(954.721 19.26329 0 0.7756211 0 0.7363695)
(937.2895 19.3494 0 0.7984783 0 0.7411917)
(937.2897 19.3494 0 0.7984788 0 0.7411928)
(915.4862 19.45152 0 0.8295721 0 0.7469872)
(915.4859 19.45153 0 0.8295733 0 0.746988)
(889.7805 19.57744 0 0.8694602 0 0.7537223)
(889.7798 19.57745 0 0.8694618 0 0.7537229)
(861.3303 19.739 0 0.9187531 0 0.7612483)
(861.3294 19.73901 0 0.918755 0 0.7612486)
(830.9796 19.93859 0 0.9781104 0 0.7693873)
(830.9787 19.93861 0 0.9781126 0 0.7693875)
(799.3237 20.17301 0 1.048237 0 0.7779754)
(799.3229 20.17304 0 1.04824 0 0.7779755)
(766.7863 20.436 0 1.129869 0 0.7868767)
(766.7856 20.43602 0 1.129872 0 0.7868768)
(733.6779 20.7191 0 1.223717 0 0.7959846)
(733.6773 20.71913 0 1.22372 0 0.7959847)
(700.2347 21.01214 0 1.330386 0 0.8052168)
(700.2343 21.01216 0 1.330389 0 0.805217)
(666.6421 21.30331 0 1.450278 0 0.8145099)
(666.6419 21.30333 0 1.450281 0 0.8145102)
(633.0479 21.57929 0 1.583489 0 0.8238145)
(633.0477 21.57931 0 1.583491 0 0.8238148)
(599.5716 21.82548 0 1.729697 0 0.8330916)
(599.5716 21.8255 0 1.729699 0 0.8330921)
(566.3132 22.02647 0 1.888068 0 0.84231)
(566.3132 22.02648 0 1.888071 0 0.8423106)
(533.359 22.16649 0 2.057166 0 0.8514434)
(533.3592 22.16651 0 2.057167 0 0.8514441)
(500.7884 22.2302 0 2.234895 0 0.8604685)
(500.7885 22.23022 0 2.234897 0 0.8604693)
(468.6781 22.20344 0 2.418488 0 0.8693639)
(468.6782 22.20345 0 2.418489 0 0.8693648)
(437.1054 22.07386 0 2.604528 0 0.8781083)
(437.1057 22.07387 0 2.60453 0 0.8781092)
(406.1508 21.83173 0 2.789029 0 0.8866804)
(406.151 21.83174 0 2.789031 0 0.8866813)
(375.8976 21.47043 0 2.967563 0 0.8950581)
(375.8978 21.47044 0 2.967565 0 0.8950589)
(346.4325 20.98687 0 3.135438 0 0.9032186)
(346.4327 20.98688 0 3.135439 0 0.9032193)
(317.8451 20.38179 0 3.287912 0 0.9111382)
(317.8452 20.38181 0 3.287913 0 0.9111389)
(290.227 19.65983 0 3.420438 0 0.9187931)
(290.227 19.65985 0 3.420439 0 0.9187936)
(263.6713 18.82943 0 3.528933 0 0.9261581)
(263.6714 18.82945 0 3.528935 0 0.9261585)
(238.2728 17.90272 0 3.610037 0 0.933208)
(238.2729 17.90273 0 3.610039 0 0.9332082)
(214.1255 16.89503 0 3.661331 0 0.9399174)
(214.1256 16.89503 0 3.661332 0 0.9399176)
(191.3215 15.82436 0 3.681511 0 0.9462611)
(191.3216 15.82437 0 3.681512 0 0.9462612)
(169.9475 14.71075 0 3.670527 0 0.9522153)
(169.9475 14.71076 0 3.67053 0 0.9522153)
(150.0805 13.57547 0 3.629647 0 0.9577583)
(150.0806 13.57548 0 3.629647 0 0.9577581)
(131.7821 12.43998 0 3.561393 0 0.9628722)
(131.7821 12.43998 0 3.561394 0 0.962872)
(115.0924 11.32487 0 3.469393 0 0.9675451)
(115.0925 11.32488 0 3.469395 0 0.9675449)
(100.0244 10.24877 0 3.358094 0 0.9717723)
(100.0245 10.24877 0 3.358096 0 0.9717719)
(86.55956 9.227253 0 3.232395 0 0.9755574)
(86.55959 9.227256 0 3.232396 0 0.9755569)
(74.64631 8.272202 0 3.097245 0 0.9789131)
(74.64635 8.272205 0 3.097246 0 0.9789128)
(64.20283 7.391387 0 2.957264 0 0.9818611)
(64.20287 7.39139 0 2.957265 0 0.9818608)
(55.12196 6.588558 0 2.816449 0 0.9844298)
(55.12199 6.588561 0 2.816449 0 0.9844296)
(47.279 5.863912 0 2.678001 0 0.9866529)
(47.27902 5.863914 0 2.678001 0 0.9866528)
(40.54031 5.214806 0 2.544279 0 0.9885671)
(40.54034 5.214809 0 2.54428 0 0.9885671)
(34.77138 4.636601 0 2.416857 0 0.9902093)
(34.7714 4.636602 0 2.416858 0 0.9902093)
(29.84319 4.123435 0 2.296642 0 0.9916149)
(29.84321 4.123435 0 2.296642 0 0.991615)
(25.63666 3.668895 0 2.184022 0 0.9928174)
(25.63667 3.668896 0 2.184023 0 0.9928175)
(22.04513 3.266512 0 2.079015 0 0.9938464)
(22.04514 3.266513 0 2.079015 0 0.9938466)
(18.97517 2.910087 0 1.981385 0 0.9947279)
(18.97518 2.910088 0 1.981385 0 0.9947281)
(16.34636 2.593886 0 1.890742 0 0.9954846)
(16.34636 2.593886 0 1.890743 0 0.995485)
(14.0903 2.312731 0 1.806621 0 0.9961357)
(14.09032 2.31273 0 1.806621 0 0.996136)
(12.14944 2.062031 0 1.728517 0 0.9966974)
(12.14944 2.062032 0 1.728517 0 0.9966976)
(10.47559 1.837771 0 1.655931 0 0.9971831)
(10.47559 1.837771 0 1.655932 0 0.9971833)
(9.028684 1.636464 0 1.588389 0 0.9976042)
(9.028685 1.636465 0 1.58839 0 0.9976044)
(7.775524 1.455122 0 1.525455 0 0.9979704)
(7.775525 1.455122 0 1.525455 0 0.9979704)
(6.688719 1.291201 0 1.466738 0 0.9982889)
(6.688719 1.291201 0 1.466738 0 0.9982889)
(5.745733 1.14256 0 1.4119 0 0.9985664)
(5.745733 1.142559 0 1.4119 0 0.9985665)
(4.928066 1.007419 0 1.360662 0 0.998808)
(4.928066 1.007418 0 1.360662 0 0.998808)
(4.220525 0.8843214 0 1.312805 0 0.999018)
(4.220525 0.8843213 0 1.312805 0 0.999018)
(3.610574 0.7720974 0 1.268174 0 0.9991999)
(3.610574 0.7720974 0 1.268174 0 0.9991999)
(3.087729 0.6698148 0 1.226677 0 0.9993566)
(3.087729 0.669815 0 1.226678 0 0.9993566)
(2.643099 0.5767543 0 1.188308 0 0.9994907)
(2.643101 0.5767544 0 1.188308 0 0.9994907)
(2.26883 0.492334 0 1.153133 0 0.9996041)
(2.268832 0.4923342 0 1.153133 0 0.9996041)
(1.956473 0.415763 0 1.120955 0 0.9996993)
(1.956475 0.4157632 0 1.120955 0 0.9996999)
(1.699625 0.3463732 0 1.092449 0 0.9997784)
(1.699626 0.3463733 0 1.092449 0 0.9997796)
(1.488566 0.282628 0 1.066483 0 0.9998446)
(1.488566 0.2826279 0 1.066483 0 0.9998456)
(1.326678 0.2250752 0 1.047764 0 0.9998963)
(1.326676 0.2250747 0 1.047763 0 0.9998963)
(1.182229 0.1690885 0 1.02184 0 0.9999462)
(1.182226 0.1690878 0 1.021839 0 0.999944)
(1.133801 0.1229101 0 1.034846 0 0.9999545)
(1.133799 0.1229105 0 1.034843 0 0.9999501)
(0.9817317 0.06845173 0 0.9732686 0 0.9999995)
(0.9817319 0.06845202 0 0.973269 0 1)
(1.035116 0.02439507 0 1.019158 0 0.9999859)
(1.035114 0.02439477 0 1.019156 0 0.9999845)
)
;

boundaryField
{
    leftandright
    {
        type            cyclic;
        value           nonuniform List<symmTensor> 
150
(
(1014.036 19.1327 0 0.7202859 0 0.71948)
(1013.41 19.13164 0 0.7205809 0 0.719658)
(1012.047 19.12865 0 0.7212474 0 0.7200487)
(1009.895 19.12616 0 0.7224161 0 0.7206788)
(1006.781 19.1244 0 0.7242897 0 0.7215893)
(1002.457 19.1238 0 0.7271717 0 0.7228334)
(996.664 19.12597 0 0.7314804 0 0.7244713)
(989.1886 19.13464 0 0.7377488 0 0.7265666)
(979.8779 19.15588 0 0.7466212 0 0.7291872)
(968.5544 19.19723 0 0.7588879 0 0.732416)
(954.7205 19.26329 0 0.7756212 0 0.7363688)
(937.2896 19.3494 0 0.7984785 0 0.7411923)
(915.4861 19.45153 0 0.8295727 0 0.7469876)
(889.7802 19.57745 0 0.869461 0 0.7537226)
(861.3299 19.73901 0 0.918754 0 0.7612484)
(830.9791 19.9386 0 0.9781115 0 0.7693874)
(799.3233 20.17303 0 1.048238 0 0.7779754)
(766.786 20.43601 0 1.12987 0 0.7868767)
(733.6776 20.71911 0 1.223718 0 0.7959847)
(700.2345 21.01215 0 1.330387 0 0.8052169)
(666.642 21.30332 0 1.450279 0 0.81451)
(633.0478 21.5793 0 1.58349 0 0.8238146)
(599.5716 21.82549 0 1.729698 0 0.8330918)
(566.3132 22.02647 0 1.88807 0 0.8423103)
(533.3591 22.1665 0 2.057167 0 0.8514437)
(500.7884 22.23021 0 2.234896 0 0.8604689)
(468.6782 22.20344 0 2.418488 0 0.8693643)
(437.1056 22.07387 0 2.604529 0 0.8781087)
(406.1509 21.83173 0 2.78903 0 0.8866808)
(375.8977 21.47043 0 2.967564 0 0.8950585)
(346.4326 20.98687 0 3.135439 0 0.9032189)
(317.8451 20.3818 0 3.287912 0 0.9111386)
(290.227 19.65984 0 3.420439 0 0.9187933)
(263.6714 18.82944 0 3.528934 0 0.9261583)
(238.2728 17.90273 0 3.610038 0 0.9332081)
(214.1256 16.89503 0 3.661332 0 0.9399175)
(191.3216 15.82436 0 3.681511 0 0.9462612)
(169.9475 14.71075 0 3.670528 0 0.9522153)
(150.0805 13.57547 0 3.629647 0 0.9577582)
(131.7821 12.43998 0 3.561394 0 0.9628721)
(115.0924 11.32488 0 3.469394 0 0.967545)
(100.0245 10.24877 0 3.358095 0 0.9717721)
(86.55957 9.227254 0 3.232396 0 0.9755571)
(74.64633 8.272204 0 3.097246 0 0.9789129)
(64.20285 7.391389 0 2.957264 0 0.981861)
(55.12197 6.588559 0 2.816449 0 0.9844297)
(47.27901 5.863913 0 2.678001 0 0.9866529)
(40.54033 5.214808 0 2.544279 0 0.9885671)
(34.77139 4.636601 0 2.416857 0 0.9902093)
(29.8432 4.123435 0 2.296642 0 0.9916149)
(25.63667 3.668896 0 2.184022 0 0.9928174)
(22.04513 3.266512 0 2.079015 0 0.9938465)
(18.97517 2.910088 0 1.981385 0 0.994728)
(16.34636 2.593886 0 1.890743 0 0.9954848)
(14.09031 2.31273 0 1.806621 0 0.9961358)
(12.14944 2.062032 0 1.728517 0 0.9966975)
(10.47559 1.837771 0 1.655932 0 0.9971832)
(9.028684 1.636464 0 1.58839 0 0.9976043)
(7.775524 1.455122 0 1.525455 0 0.9979704)
(6.688719 1.291201 0 1.466738 0 0.9982889)
(5.745733 1.14256 0 1.4119 0 0.9985665)
(4.928066 1.007419 0 1.360662 0 0.998808)
(4.220525 0.8843213 0 1.312805 0 0.999018)
(3.610574 0.7720974 0 1.268174 0 0.9991999)
(3.087729 0.6698149 0 1.226678 0 0.9993566)
(2.6431 0.5767544 0 1.188308 0 0.9994907)
(2.268831 0.4923341 0 1.153133 0 0.9996041)
(1.956474 0.4157631 0 1.120955 0 0.9996996)
(1.699626 0.3463733 0 1.092449 0 0.999779)
(1.488566 0.282628 0 1.066483 0 0.9998451)
(1.326677 0.225075 0 1.047763 0 0.9998963)
(1.182228 0.1690881 0 1.021839 0 0.9999451)
(1.1338 0.1229103 0 1.034844 0 0.9999523)
(0.9817318 0.06845187 0 0.9732688 0 1)
(1.035115 0.02439492 0 1.019157 0 0.9999852)
(1014.036 19.1327 0 0.7202859 0 0.71948)
(1013.41 19.13164 0 0.7205809 0 0.719658)
(1012.047 19.12865 0 0.7212474 0 0.7200487)
(1009.895 19.12616 0 0.7224161 0 0.7206788)
(1006.781 19.1244 0 0.7242897 0 0.7215893)
(1002.457 19.1238 0 0.7271717 0 0.7228334)
(996.664 19.12597 0 0.7314804 0 0.7244713)
(989.1886 19.13464 0 0.7377488 0 0.7265666)
(979.8779 19.15588 0 0.7466212 0 0.7291872)
(968.5544 19.19723 0 0.7588879 0 0.732416)
(954.7205 19.26329 0 0.7756212 0 0.7363688)
(937.2896 19.3494 0 0.7984785 0 0.7411923)
(915.4861 19.45153 0 0.8295727 0 0.7469876)
(889.7802 19.57745 0 0.869461 0 0.7537226)
(861.3299 19.73901 0 0.918754 0 0.7612484)
(830.9791 19.9386 0 0.9781115 0 0.7693874)
(799.3233 20.17303 0 1.048238 0 0.7779754)
(766.786 20.43601 0 1.12987 0 0.7868767)
(733.6776 20.71911 0 1.223718 0 0.7959847)
(700.2345 21.01215 0 1.330387 0 0.8052169)
(666.642 21.30332 0 1.450279 0 0.81451)
(633.0478 21.5793 0 1.58349 0 0.8238146)
(599.5716 21.82549 0 1.729698 0 0.8330918)
(566.3132 22.02647 0 1.88807 0 0.8423103)
(533.3591 22.1665 0 2.057167 0 0.8514437)
(500.7884 22.23021 0 2.234896 0 0.8604689)
(468.6782 22.20344 0 2.418488 0 0.8693643)
(437.1056 22.07387 0 2.604529 0 0.8781087)
(406.1509 21.83173 0 2.78903 0 0.8866808)
(375.8977 21.47043 0 2.967564 0 0.8950585)
(346.4326 20.98687 0 3.135439 0 0.9032189)
(317.8451 20.3818 0 3.287912 0 0.9111386)
(290.227 19.65984 0 3.420439 0 0.9187933)
(263.6714 18.82944 0 3.528934 0 0.9261583)
(238.2728 17.90273 0 3.610038 0 0.9332081)
(214.1256 16.89503 0 3.661332 0 0.9399175)
(191.3216 15.82436 0 3.681511 0 0.9462612)
(169.9475 14.71075 0 3.670528 0 0.9522153)
(150.0805 13.57547 0 3.629647 0 0.9577582)
(131.7821 12.43998 0 3.561394 0 0.9628721)
(115.0924 11.32488 0 3.469394 0 0.967545)
(100.0245 10.24877 0 3.358095 0 0.9717721)
(86.55957 9.227254 0 3.232396 0 0.9755571)
(74.64633 8.272204 0 3.097246 0 0.9789129)
(64.20285 7.391389 0 2.957264 0 0.981861)
(55.12197 6.588559 0 2.816449 0 0.9844297)
(47.27901 5.863913 0 2.678001 0 0.9866529)
(40.54033 5.214808 0 2.544279 0 0.9885671)
(34.77139 4.636601 0 2.416857 0 0.9902093)
(29.8432 4.123435 0 2.296642 0 0.9916149)
(25.63667 3.668896 0 2.184022 0 0.9928174)
(22.04513 3.266512 0 2.079015 0 0.9938465)
(18.97517 2.910088 0 1.981385 0 0.994728)
(16.34636 2.593886 0 1.890743 0 0.9954848)
(14.09031 2.31273 0 1.806621 0 0.9961358)
(12.14944 2.062032 0 1.728517 0 0.9966975)
(10.47559 1.837771 0 1.655932 0 0.9971832)
(9.028684 1.636464 0 1.58839 0 0.9976043)
(7.775524 1.455122 0 1.525455 0 0.9979704)
(6.688719 1.291201 0 1.466738 0 0.9982889)
(5.745733 1.14256 0 1.4119 0 0.9985665)
(4.928066 1.007419 0 1.360662 0 0.998808)
(4.220525 0.8843213 0 1.312805 0 0.999018)
(3.610574 0.7720974 0 1.268174 0 0.9991999)
(3.087729 0.6698149 0 1.226678 0 0.9993566)
(2.6431 0.5767544 0 1.188308 0 0.9994907)
(2.268831 0.4923341 0 1.153133 0 0.9996041)
(1.956474 0.4157631 0 1.120955 0 0.9996996)
(1.699626 0.3463733 0 1.092449 0 0.999779)
(1.488566 0.282628 0 1.066483 0 0.9998451)
(1.326677 0.225075 0 1.047763 0 0.9998963)
(1.182228 0.1690881 0 1.021839 0 0.9999451)
(1.1338 0.1229103 0 1.034844 0 0.9999523)
(0.9817318 0.06845187 0 0.9732688 0 1)
(1.035115 0.02439492 0 1.019157 0 0.9999852)
)
;
    }
    wall
    {
        type            zeroGradient;
    }
    frontAndBack
    {
        type            empty;
    }
    middle
    {
        type            symmetryPlane;
        value           nonuniform List<symmTensor> 2((1.035116 0 0 1.019158 0 0.9999859) (1.035114 0 0 1.019156 0 0.9999845));
    }
}


// ************************************************************************* //
