/*--------------------------------*- C++ -*----------------------------------*\
| =========                 |                                                 |
| \\      /  F ield         | foam-extend: Open Source CFD                    |
|  \\    /   O peration     | Version:     4.0                                |
|   \\  /    A nd           | Web:         http://www.foam-extend.org         |
|    \\/     M anipulation  |                                                 |
\*---------------------------------------------------------------------------*/
FoamFile
{
    version     2.0;
    format      ascii;
    class       volScalarField;
    location    "100";
    object      Ceps1;
}
// * * * * * * * * * * * * * * * * * * * * * * * * * * * * * * * * * * * * * //

dimensions      [0 0 0 0 0 0 0];

internalField   nonuniform List<scalar> 
150
(
7.86425
7.86425
4.422919
4.422918
3.383039
3.383039
2.892587
2.892587
2.609699
2.609699
2.426807
2.426807
2.299524
2.299524
2.206194
2.206193
2.134972
2.134971
2.078821
2.078821
2.033303
2.033303
1.995542
1.995542
1.963614
1.963614
1.935803
1.935803
1.910893
1.910893
1.88811
1.88811
1.86696
1.86696
1.847135
1.847135
1.828444
1.828444
1.810765
1.810765
1.794022
1.794022
1.778166
1.778166
1.76316
1.76316
1.748974
1.748974
1.735582
1.735582
1.722954
1.722954
1.711064
1.711064
1.699879
1.699879
1.689368
1.689368
1.679496
1.679496
1.670229
1.670229
1.66153
1.66153
1.653363
1.653363
1.645691
1.645691
1.638479
1.638479
1.631692
1.631692
1.625298
1.625298
1.619264
1.619264
1.613563
1.613563
1.608169
1.608169
1.603057
1.603057
1.598205
1.598205
1.593591
1.593591
1.589197
1.589197
1.585006
1.585006
1.581001
1.581001
1.577167
1.577167
1.57349
1.57349
1.569956
1.569956
1.566553
1.566553
1.563268
1.563268
1.56009
1.56009
1.557006
1.557006
1.554006
1.554006
1.551078
1.551078
1.548211
1.548211
1.545395
1.545395
1.542621
1.542621
1.539881
1.539881
1.537167
1.537167
1.534478
1.534478
1.531813
1.531813
1.529179
1.529179
1.526592
1.526592
1.524076
1.524076
1.52167
1.52167
1.519428
1.519428
1.517428
1.517428
1.515685
1.515685
1.514173
1.514173
1.512881
1.512881
1.511809
1.511809
1.510967
1.510967
1.510374
1.510374
1.510058
1.510058
)
;

boundaryField
{
    leftandright
    {
        type            cyclic;
        value           nonuniform List<scalar> 
150
(
7.86425
4.422919
3.383039
2.892587
2.609699
2.426807
2.299524
2.206193
2.134971
2.078821
2.033303
1.995542
1.963614
1.935803
1.910893
1.88811
1.86696
1.847135
1.828444
1.810765
1.794022
1.778166
1.76316
1.748974
1.735582
1.722954
1.711064
1.699879
1.689368
1.679496
1.670229
1.66153
1.653363
1.645691
1.638479
1.631692
1.625298
1.619264
1.613563
1.608169
1.603057
1.598205
1.593591
1.589197
1.585006
1.581001
1.577167
1.57349
1.569956
1.566553
1.563268
1.56009
1.557006
1.554006
1.551078
1.548211
1.545395
1.542621
1.539881
1.537167
1.534478
1.531813
1.529179
1.526592
1.524076
1.52167
1.519428
1.517428
1.515685
1.514173
1.512881
1.511809
1.510967
1.510374
1.510058
7.86425
4.422919
3.383039
2.892587
2.609699
2.426807
2.299524
2.206193
2.134971
2.078821
2.033303
1.995542
1.963614
1.935803
1.910893
1.88811
1.86696
1.847135
1.828444
1.810765
1.794022
1.778166
1.76316
1.748974
1.735582
1.722954
1.711064
1.699879
1.689368
1.679496
1.670229
1.66153
1.653363
1.645691
1.638479
1.631692
1.625298
1.619264
1.613563
1.608169
1.603057
1.598205
1.593591
1.589197
1.585006
1.581001
1.577167
1.57349
1.569956
1.566553
1.563268
1.56009
1.557006
1.554006
1.551078
1.548211
1.545395
1.542621
1.539881
1.537167
1.534478
1.531813
1.529179
1.526592
1.524076
1.52167
1.519428
1.517428
1.515685
1.514173
1.512881
1.511809
1.510967
1.510374
1.510058
)
;
    }
    wall
    {
        type            calculated;
        value           uniform 1.463;
    }
    frontAndBack
    {
        type            empty;
    }
    middle
    {
        type            symmetryPlane;
        value           nonuniform List<scalar> 2(1.510058 1.510058);
    }
}


// ************************************************************************* //
