/*--------------------------------*- C++ -*----------------------------------*\
| =========                 |                                                 |
| \\      /  F ield         | foam-extend: Open Source CFD                    |
|  \\    /   O peration     | Version:     4.0                                |
|   \\  /    A nd           | Web:         http://www.foam-extend.org         |
|    \\/     M anipulation  |                                                 |
\*---------------------------------------------------------------------------*/
FoamFile
{
    version     2.0;
    format      ascii;
    class       volSymmTensorField;
    location    "100";
    object      DiffC;
}
// * * * * * * * * * * * * * * * * * * * * * * * * * * * * * * * * * * * * * //

dimensions      [0 0 -1 0 0 0 0];

internalField   nonuniform List<symmTensor> 
150
(
(-35.77612 0.01502794 0 0.0185119 0 0.01100725)
(-42.93354 -0.1481667 0 0.01857644 0 0.01137551)
(-42.59343 -0.1820936 0 0.02020328 0 0.01187137)
(-37.58436 -0.03164514 0 0.02037749 0 0.01130634)
(-37.84081 0.03408832 0 0.0241499 0 0.01127106)
(-36.3351 0.03282738 0 0.02407404 0 0.01133294)
(-39.86584 0.03984232 0 0.03014294 0 0.01149462)
(-39.62546 0.04071909 0 0.03001335 0 0.01164213)
(-44.32104 0.0517857 0 0.03852947 0 0.01210031)
(-44.32894 0.0534404 0 0.0384869 0 0.01213262)
(-47.63522 0.106623 0 0.04886267 0 0.01261945)
(-47.6795 0.1077051 0 0.04887292 0 0.01260439)
(-47.91927 0.2200684 0 0.06012277 0 0.01292457)
(-47.93916 0.2207485 0 0.06014019 0 0.01290577)
(-45.46046 0.3794879 0 0.07144921 0 0.01309452)
(-45.47432 0.3800563 0 0.07146143 0 0.01308085)
(-43.5265 0.5389947 0 0.08327675 0 0.01343287)
(-43.52735 0.5387395 0 0.08328319 0 0.01342814)
(-49.51038 0.5789693 0 0.09841911 0 0.01432796)
(-49.51195 0.5789576 0 0.0984205 0 0.01432725)
(-67.04952 0.3868562 0 0.1222396 0 0.01551259)
(-67.04612 0.3870713 0 0.1222397 0 0.01551316)
(-73.11308 0.2437757 0 0.1484309 0 0.01523045)
(-73.1088 0.243953 0 0.1484292 0 0.01523213)
(-52.99076 0.3533108 0 0.1369398 0 0.01222846)
(-52.98743 0.3527705 0 0.1369366 0 0.0122283)
(-24.60995 0.5022187 0 0.1267144 0 0.007683307)
(-24.60723 0.5025466 0 0.1267129 0 0.00768418)
(-6.951143 0.463548 0 0.1174794 0 0.003555632)
(-6.945727 0.4635485 0 0.1174764 0 0.003558278)
(3.470931 0.3472424 0 0.1090144 0 0.000465515)
(3.470518 0.3472355 0 0.1090158 0 0.0004653997)
(9.393774 0.2114473 0 0.1010367 0 -0.001603874)
(9.39408 0.2113161 0 0.1010324 0 -0.001602612)
(12.60754 0.07709872 0 0.09286596 0 -0.002866864)
(12.60888 0.07709599 0 0.09286455 0 -0.002866462)
(14.18665 -0.04744093 0 0.08385025 0 -0.003566596)
(14.18674 -0.04744224 0 0.08384936 0 -0.003565697)
(14.75416 -0.1592597 0 0.07349958 0 -0.003886679)
(14.75412 -0.159261 0 0.07349895 0 -0.003887354)
(14.68455 -0.2575266 0 0.06155163 0 -0.003968516)
(14.68369 -0.2575278 0 0.06155118 0 -0.003968529)
(14.21882 -0.3400425 0 0.04795762 0 -0.003897251)
(14.21946 -0.3400441 0 0.04795715 0 -0.003896672)
(13.52781 -0.4053147 0 0.03289011 0 -0.003737214)
(13.52705 -0.4053162 0 0.0328895 0 -0.003737309)
(12.7219 -0.4521589 0 0.01670173 0 -0.003530931)
(12.7224 -0.4521611 0 0.01669671 0 -0.003531136)
(11.88055 -0.4795408 0 -6.752827e-05 0 -0.003303655)
(11.87989 -0.4795416 0 -5.826314e-05 0 -0.003304341)
(11.05111 -0.4874423 0 -0.01674529 0 -0.003073708)
(11.05103 -0.4874445 0 -0.01674968 0 -0.003073466)
(10.25553 -0.4774531 0 -0.0326458 0 -0.002850518)
(10.2559 -0.4774552 0 -0.03264619 0 -0.002851159)
(9.507412 -0.4512551 0 -0.04706893 0 -0.002637952)
(9.506482 -0.4512989 0 -0.04706932 0 -0.002638164)
(8.805448 -0.4118172 0 -0.05936913 0 -0.002438844)
(8.805802 -0.4117398 0 -0.05936899 0 -0.002439397)
(8.146634 -0.3621937 0 -0.0690463 0 -0.002252321)
(8.146918 -0.3622319 0 -0.06904968 0 -0.002252477)
(7.53002 -0.3057812 0 -0.07575512 0 -0.002078354)
(7.529349 -0.3057519 0 -0.07574929 0 -0.002077904)
(6.948857 -0.2457409 0 -0.07931007 0 -0.001914343)
(6.948827 -0.2458028 0 -0.07931332 0 -0.001915274)
(6.402377 -0.1851226 0 -0.07971528 0 -0.001762554)
(6.402897 -0.185098 0 -0.07971542 0 -0.001762163)
(5.889263 -0.1261638 0 -0.07714307 0 -0.001619655)
(5.889005 -0.126189 0 -0.07714354 0 -0.001619937)
(5.404755 -0.07127892 0 -0.07198375 0 -0.001485688)
(5.404747 -0.07125733 0 -0.07198571 0 -0.001485524)
(4.945688 -0.02199638 0 -0.06473329 0 -0.001359664)
(4.945682 -0.02197762 0 -0.06472962 0 -0.001359688)
(4.50771 0.02046762 0 -0.05591083 0 -0.001239544)
(4.50753 0.02044761 0 -0.05591131 0 -0.001239715)
(4.086125 0.0554254 0 -0.0461129 0 -0.001124896)
(4.086447 0.05540785 0 -0.04611786 0 -0.001124874)
(3.676453 0.08224452 0 -0.03597229 0 -0.001013579)
(3.6763 0.08225928 0 -0.03596815 0 -0.001013392)
(3.276111 0.1009822 0 -0.02608675 0 -0.0009043838)
(3.276105 0.1009949 0 -0.0260868 0 -0.0009043334)
(2.884447 0.1119007 0 -0.01701192 0 -0.0007980128)
(2.884434 0.1118753 0 -0.01701366 0 -0.0007981789)
(2.503644 0.1156103 0 -0.009190151 0 -0.0006943674)
(2.503594 0.1156245 0 -0.009191267 0 -0.0006940706)
(2.138734 0.1133197 0 -0.002889605 0 -0.0005946864)
(2.138767 0.1133163 0 -0.002888846 0 -0.0005945112)
(1.796477 0.1063451 0 0.001794904 0 -0.0005006322)
(1.796471 0.1063446 0 0.001794774 0 -0.0005006541)
(1.483431 0.09622006 0 0.004944355 0 -0.0004146803)
(1.483409 0.09621964 0 0.004944221 0 -0.0004145476)
(1.205064 0.08440706 0 0.006772487 0 -0.0003375311)
(1.205067 0.08440595 0 0.006771675 0 -0.0003375664)
(0.9645352 0.07214308 0 0.007562722 0 -0.0002708579)
(0.9645386 0.07214416 0 0.007563984 0 -0.000270769)
(0.7622431 0.06036672 0 0.007618592 0 -0.000214524)
(0.7622392 0.06036456 0 0.007617839 0 -0.0002145777)
(0.596169 0.04965898 0 0.007202742 0 -0.000168224)
(0.596165 0.04965999 0 0.007202105 0 -0.000168227)
(0.4625968 0.04032 0 0.006528574 0 -0.0001306935)
(0.4625878 0.0403204 0 0.006529488 0 -0.0001306577)
(0.3569643 0.03242323 0 0.005749894 0 -0.0001009975)
(0.3569616 0.03242211 0 0.005748872 0 -0.0001010721)
(0.2744855 0.02589572 0 0.004960532 0 -7.78735e-05)
(0.2744882 0.02589604 0 0.004960899 0 -7.790961e-05)
(0.2107123 0.02059025 0 0.00422028 0 -5.982804e-05)
(0.2107108 0.02058981 0 0.004220581 0 -5.983353e-05)
(0.1617178 0.01632983 0 0.003557014 0 -4.601345e-05)
(0.1617195 0.01633022 0 0.003556217 0 -4.610244e-05)
(0.1242628 0.01293842 0 0.00297779 0 -3.535334e-05)
(0.1242511 0.01293877 0 0.002978055 0 -3.543775e-05)
(0.09566904 0.01025467 0 0.002484767 0 -2.733466e-05)
(0.0956745 0.01025402 0 0.002484732 0 -2.734753e-05)
(0.07389062 0.008137703 0 0.002069718 0 -2.112723e-05)
(0.07389118 0.008138231 0 0.002069929 0 -2.116302e-05)
(0.05729386 0.006475022 0 0.001725114 0 -1.636321e-05)
(0.05729313 0.006474462 0 0.001724517 0 -1.641489e-05)
(0.04463212 0.005170059 0 0.001439978 0 -1.283892e-05)
(0.04463168 0.005170296 0 0.001440164 0 -1.282933e-05)
(0.03495489 0.004147976 0 0.00120629 0 -1.004031e-05)
(0.03495497 0.004148004 0 0.001206284 0 -1.004511e-05)
(0.02753566 0.003347968 0 0.001016077 0 -7.962733e-06)
(0.02753556 0.00334799 0 0.001016076 0 -7.963245e-06)
(0.02182067 0.002722025 0 0.0008617785 0 -6.300393e-06)
(0.02182042 0.002722026 0 0.0008617796 0 -6.298001e-06)
(0.01738849 0.002231485 0 0.0007375198 0 -5.054462e-06)
(0.01738867 0.002231536 0 0.0007375236 0 -5.05015e-06)
(0.01391783 0.001844725 0 0.000637087 0 -4.057567e-06)
(0.01391786 0.001844738 0 0.0006372026 0 -4.050935e-06)
(0.01117615 0.001538975 0 0.0005591465 0 -3.273094e-06)
(0.01117637 0.001538906 0 0.0005587818 0 -3.262802e-06)
(0.008973464 0.001291397 0 0.0004968742 0 -2.655575e-06)
(0.008972825 0.001291392 0 0.000496959 0 -2.643856e-06)
(0.007070853 0.001061345 0 0.000418395 0 -2.079952e-06)
(0.007070705 0.001061281 0 0.0004183621 0 -2.056157e-06)
(0.005644462 0.0008761781 0 0.0004199164 0 -1.615267e-06)
(0.005644091 0.0008761446 0 0.0004198584 0 -1.710014e-06)
(0.004211174 0.0006569608 0 0.0002856816 0 -1.116547e-06)
(0.004211097 0.0006569421 0 0.0002856047 0 -1.353818e-06)
(0.003879013 0.0006113835 0 0.0005547345 0 -1.067265e-06)
(0.003878882 0.0006113912 0 0.0005546928 0 -1.29491e-06)
(0.001505512 0.0002639221 0 -0.0003658723 0 -2.663502e-07)
(0.001505804 0.0002639962 0 -0.0003658288 0 -3.263629e-07)
(0.005480049 0.0006714364 0 0.002133368 0 -2.514894e-06)
(0.005480584 0.0006716117 0 0.002133424 0 -2.161012e-06)
(-0.00485314 -0.0002839351 0 -0.003609789 0 1.391887e-06)
(-0.004852526 -0.0002840524 0 -0.003609148 0 2.454372e-06)
(0.009257789 0.0005724944 0 0.004802605 0 -2.575228e-06)
(0.00925753 0.0005724276 0 0.00480231 0 -3.056793e-06)
(-0.002205206 -0.0001465448 0 -0.001895652 0 4.530094e-07)
(-0.002204913 -0.0001464499 0 -0.001895277 0 7.683049e-07)
)
;

boundaryField
{
    leftandright
    {
        type            cyclic;
        value           nonuniform List<symmTensor> 
150
(
(-39.35483 -0.0665694 0 0.01854417 0 0.01119138)
(-40.08889 -0.1068693 0 0.02029038 0 0.01158886)
(-37.08795 0.03345785 0 0.02411197 0 0.011302)
(-39.74565 0.0402807 0 0.03007814 0 0.01156837)
(-44.32499 0.05261305 0 0.03850818 0 0.01211646)
(-47.65736 0.1071641 0 0.04886779 0 0.01261192)
(-47.92922 0.2204085 0 0.06013148 0 0.01291517)
(-45.46739 0.3797721 0 0.07145532 0 0.01308768)
(-43.52693 0.5388671 0 0.08327997 0 0.01343051)
(-49.51116 0.5789634 0 0.0984198 0 0.0143276)
(-67.04782 0.3869637 0 0.1222396 0 0.01551288)
(-73.11094 0.2438643 0 0.1484301 0 0.01523129)
(-52.9891 0.3530406 0 0.1369382 0 0.01222838)
(-24.60859 0.5023827 0 0.1267136 0 0.007683744)
(-6.948435 0.4635483 0 0.1174779 0 0.003556955)
(3.470724 0.3472389 0 0.1090151 0 0.0004654574)
(9.393927 0.2113817 0 0.1010346 0 -0.001603243)
(12.60821 0.07709735 0 0.09286525 0 -0.002866663)
(14.1867 -0.04744158 0 0.0838498 0 -0.003566147)
(14.75414 -0.1592603 0 0.07349926 0 -0.003887017)
(14.68412 -0.2575272 0 0.06155141 0 -0.003968523)
(14.21914 -0.3400433 0 0.04795738 0 -0.003896961)
(13.52743 -0.4053155 0 0.0328898 0 -0.003737261)
(12.72215 -0.45216 0 0.01669922 0 -0.003531033)
(11.88022 -0.4795412 0 -6.28957e-05 0 -0.003303998)
(11.05107 -0.4874434 0 -0.01674748 0 -0.003073587)
(10.25571 -0.4774542 0 -0.03264599 0 -0.002850838)
(9.506947 -0.451277 0 -0.04706912 0 -0.002638058)
(8.805625 -0.4117785 0 -0.05936906 0 -0.00243912)
(8.146776 -0.3622128 0 -0.06904799 0 -0.002252399)
(7.529685 -0.3057665 0 -0.07575221 0 -0.002078129)
(6.948842 -0.2457718 0 -0.07931169 0 -0.001914808)
(6.402637 -0.1851103 0 -0.07971535 0 -0.001762359)
(5.889134 -0.1261764 0 -0.07714331 0 -0.001619796)
(5.404751 -0.07126812 0 -0.07198473 0 -0.001485606)
(4.945685 -0.021987 0 -0.06473146 0 -0.001359676)
(4.50762 0.02045761 0 -0.05591107 0 -0.001239629)
(4.086286 0.05541663 0 -0.04611538 0 -0.001124885)
(3.676376 0.0822519 0 -0.03597022 0 -0.001013485)
(3.276108 0.1009886 0 -0.02608677 0 -0.0009043586)
(2.884441 0.111888 0 -0.01701279 0 -0.0007980958)
(2.503619 0.1156174 0 -0.009190709 0 -0.000694219)
(2.138751 0.113318 0 -0.002889226 0 -0.0005945988)
(1.796474 0.1063448 0 0.001794839 0 -0.0005006431)
(1.48342 0.09621985 0 0.004944288 0 -0.0004146139)
(1.205065 0.0844065 0 0.006772081 0 -0.0003375488)
(0.9645369 0.07214362 0 0.007563353 0 -0.0002708135)
(0.7622411 0.06036564 0 0.007618215 0 -0.0002145509)
(0.596167 0.04965948 0 0.007202424 0 -0.0001682255)
(0.4625923 0.0403202 0 0.006529031 0 -0.0001306756)
(0.3569629 0.03242267 0 0.005749383 0 -0.0001010348)
(0.2744868 0.02589588 0 0.004960716 0 -7.789156e-05)
(0.2107116 0.02059003 0 0.004220431 0 -5.983079e-05)
(0.1617187 0.01633003 0 0.003556616 0 -4.605794e-05)
(0.1242569 0.0129386 0 0.002977922 0 -3.539554e-05)
(0.09567177 0.01025435 0 0.002484749 0 -2.734109e-05)
(0.0738909 0.008137967 0 0.002069823 0 -2.114512e-05)
(0.0572935 0.006474742 0 0.001724815 0 -1.638905e-05)
(0.0446319 0.005170177 0 0.001440071 0 -1.283412e-05)
(0.03495493 0.00414799 0 0.001206287 0 -1.004271e-05)
(0.02753561 0.003347979 0 0.001016076 0 -7.962989e-06)
(0.02182054 0.002722026 0 0.000861779 0 -6.299197e-06)
(0.01738858 0.002231511 0 0.0007375217 0 -5.052306e-06)
(0.01391785 0.001844732 0 0.0006371448 0 -4.054251e-06)
(0.01117626 0.001538941 0 0.0005589641 0 -3.267948e-06)
(0.008973145 0.001291394 0 0.0004969166 0 -2.649715e-06)
(0.007070779 0.001061313 0 0.0004183786 0 -2.068055e-06)
(0.005644276 0.0008761613 0 0.0004198874 0 -1.66264e-06)
(0.004211135 0.0006569515 0 0.0002856431 0 -1.235183e-06)
(0.003878947 0.0006113873 0 0.0005547136 0 -1.181087e-06)
(0.001505658 0.0002639591 0 -0.0003658506 0 -2.963565e-07)
(0.005480317 0.000671524 0 0.002133396 0 -2.337953e-06)
(-0.004852833 -0.0002839937 0 -0.003609468 0 1.923129e-06)
(0.009257659 0.000572461 0 0.004802458 0 -2.816011e-06)
(-0.002205059 -0.0001464973 0 -0.001895465 0 6.106571e-07)
(-39.35483 -0.0665694 0 0.01854417 0 0.01119138)
(-40.08889 -0.1068693 0 0.02029038 0 0.01158886)
(-37.08795 0.03345785 0 0.02411197 0 0.011302)
(-39.74565 0.0402807 0 0.03007814 0 0.01156837)
(-44.32499 0.05261305 0 0.03850818 0 0.01211646)
(-47.65736 0.1071641 0 0.04886779 0 0.01261192)
(-47.92922 0.2204085 0 0.06013148 0 0.01291517)
(-45.46739 0.3797721 0 0.07145532 0 0.01308768)
(-43.52693 0.5388671 0 0.08327997 0 0.01343051)
(-49.51116 0.5789634 0 0.0984198 0 0.0143276)
(-67.04782 0.3869637 0 0.1222396 0 0.01551288)
(-73.11094 0.2438643 0 0.1484301 0 0.01523129)
(-52.9891 0.3530406 0 0.1369382 0 0.01222838)
(-24.60859 0.5023827 0 0.1267136 0 0.007683744)
(-6.948435 0.4635483 0 0.1174779 0 0.003556955)
(3.470724 0.3472389 0 0.1090151 0 0.0004654574)
(9.393927 0.2113817 0 0.1010346 0 -0.001603243)
(12.60821 0.07709735 0 0.09286525 0 -0.002866663)
(14.1867 -0.04744158 0 0.0838498 0 -0.003566147)
(14.75414 -0.1592603 0 0.07349926 0 -0.003887017)
(14.68412 -0.2575272 0 0.06155141 0 -0.003968523)
(14.21914 -0.3400433 0 0.04795738 0 -0.003896961)
(13.52743 -0.4053155 0 0.0328898 0 -0.003737261)
(12.72215 -0.45216 0 0.01669922 0 -0.003531033)
(11.88022 -0.4795412 0 -6.28957e-05 0 -0.003303998)
(11.05107 -0.4874434 0 -0.01674748 0 -0.003073587)
(10.25571 -0.4774542 0 -0.03264599 0 -0.002850838)
(9.506947 -0.451277 0 -0.04706912 0 -0.002638058)
(8.805625 -0.4117785 0 -0.05936906 0 -0.00243912)
(8.146776 -0.3622128 0 -0.06904799 0 -0.002252399)
(7.529685 -0.3057665 0 -0.07575221 0 -0.002078129)
(6.948842 -0.2457718 0 -0.07931169 0 -0.001914808)
(6.402637 -0.1851103 0 -0.07971535 0 -0.001762359)
(5.889134 -0.1261764 0 -0.07714331 0 -0.001619796)
(5.404751 -0.07126812 0 -0.07198473 0 -0.001485606)
(4.945685 -0.021987 0 -0.06473146 0 -0.001359676)
(4.50762 0.02045761 0 -0.05591107 0 -0.001239629)
(4.086286 0.05541663 0 -0.04611538 0 -0.001124885)
(3.676376 0.0822519 0 -0.03597022 0 -0.001013485)
(3.276108 0.1009886 0 -0.02608677 0 -0.0009043586)
(2.884441 0.111888 0 -0.01701279 0 -0.0007980958)
(2.503619 0.1156174 0 -0.009190709 0 -0.000694219)
(2.138751 0.113318 0 -0.002889226 0 -0.0005945988)
(1.796474 0.1063448 0 0.001794839 0 -0.0005006431)
(1.48342 0.09621985 0 0.004944288 0 -0.0004146139)
(1.205065 0.0844065 0 0.006772081 0 -0.0003375488)
(0.9645369 0.07214362 0 0.007563353 0 -0.0002708135)
(0.7622411 0.06036564 0 0.007618215 0 -0.0002145509)
(0.596167 0.04965948 0 0.007202424 0 -0.0001682255)
(0.4625923 0.0403202 0 0.006529031 0 -0.0001306756)
(0.3569629 0.03242267 0 0.005749383 0 -0.0001010348)
(0.2744868 0.02589588 0 0.004960716 0 -7.789156e-05)
(0.2107116 0.02059003 0 0.004220431 0 -5.983079e-05)
(0.1617187 0.01633003 0 0.003556616 0 -4.605794e-05)
(0.1242569 0.0129386 0 0.002977922 0 -3.539554e-05)
(0.09567177 0.01025435 0 0.002484749 0 -2.734109e-05)
(0.0738909 0.008137967 0 0.002069823 0 -2.114512e-05)
(0.0572935 0.006474742 0 0.001724815 0 -1.638905e-05)
(0.0446319 0.005170177 0 0.001440071 0 -1.283412e-05)
(0.03495493 0.00414799 0 0.001206287 0 -1.004271e-05)
(0.02753561 0.003347979 0 0.001016076 0 -7.962989e-06)
(0.02182054 0.002722026 0 0.000861779 0 -6.299197e-06)
(0.01738858 0.002231511 0 0.0007375217 0 -5.052306e-06)
(0.01391785 0.001844732 0 0.0006371448 0 -4.054251e-06)
(0.01117626 0.001538941 0 0.0005589641 0 -3.267948e-06)
(0.008973145 0.001291394 0 0.0004969166 0 -2.649715e-06)
(0.007070779 0.001061313 0 0.0004183786 0 -2.068055e-06)
(0.005644276 0.0008761613 0 0.0004198874 0 -1.66264e-06)
(0.004211135 0.0006569515 0 0.0002856431 0 -1.235183e-06)
(0.003878947 0.0006113873 0 0.0005547136 0 -1.181087e-06)
(0.001505658 0.0002639591 0 -0.0003658506 0 -2.963565e-07)
(0.005480317 0.000671524 0 0.002133396 0 -2.337953e-06)
(-0.004852833 -0.0002839937 0 -0.003609468 0 1.923129e-06)
(0.009257659 0.000572461 0 0.004802458 0 -2.816011e-06)
(-0.002205059 -0.0001464973 0 -0.001895465 0 6.106571e-07)
)
;
    }
    wall
    {
        type            calculated;
        value           nonuniform List<symmTensor> 2((-35.77612 0.01502794 0 0.0185119 0 0.01100725) (-42.93354 -0.1481667 0 0.01857644 0 0.01137551));
    }
    frontAndBack
    {
        type            empty;
    }
    middle
    {
        type            symmetryPlane;
        value           nonuniform List<symmTensor> 2((-0.002205206 0 0 -0.001895652 0 4.530094e-07) (-0.002204913 0 0 -0.001895277 0 7.683049e-07));
    }
}


// ************************************************************************* //
