/*--------------------------------*- C++ -*----------------------------------*\
| =========                 |                                                 |
| \\      /  F ield         | foam-extend: Open Source CFD                    |
|  \\    /   O peration     | Version:     4.0                                |
|   \\  /    A nd           | Web:         http://www.foam-extend.org         |
|    \\/     M anipulation  |                                                 |
\*---------------------------------------------------------------------------*/
FoamFile
{
    version     2.0;
    format      ascii;
    class       volScalarField;
    location    "100";
    object      epsilonPlus;
}
// * * * * * * * * * * * * * * * * * * * * * * * * * * * * * * * * * * * * * //

dimensions      [0 4 -4 0 0 0 0];

internalField   nonuniform List<scalar> 
150
(
0.1698396
0.1698396
0.1527743
0.1527743
0.1381935
0.1381935
0.1260492
0.1260492
0.1163172
0.1163172
0.1089881
0.1089881
0.1040541
0.1040541
0.1014923
0.1014923
0.1012502
0.1012502
0.1032357
0.1032357
0.1073181
0.1073181
0.1133361
0.1133362
0.1209204
0.1209205
0.129232
0.129232
0.1375561
0.1375561
0.1452874
0.1452874
0.1519491
0.1519491
0.1572032
0.1572032
0.1608497
0.1608498
0.162816
0.162816
0.1631363
0.1631363
0.1619284
0.1619284
0.1593666
0.1593666
0.1556583
0.1556583
0.1510225
0.1510225
0.1456742
0.1456742
0.1398125
0.1398125
0.1336142
0.1336142
0.1272298
0.1272298
0.1207832
0.1207832
0.114373
0.114373
0.1080751
0.1080751
0.1019453
0.1019453
0.09602286
0.09602286
0.09033349
0.09033349
0.08489225
0.08489225
0.07970595
0.07970595
0.07477525
0.07477525
0.07009631
0.07009631
0.06566218
0.06566218
0.06146389
0.06146389
0.05749122
0.05749122
0.05373337
0.05373337
0.05017937
0.05017937
0.0468184
0.0468184
0.04363999
0.04363999
0.04063411
0.04063411
0.03779128
0.03779128
0.03510255
0.03510255
0.03255955
0.03255955
0.03015445
0.03015445
0.02787999
0.02787999
0.02572944
0.02572944
0.02369666
0.02369666
0.02177607
0.02177607
0.01996269
0.01996269
0.01825213
0.01825213
0.01664065
0.01664065
0.01512514
0.01512514
0.01370312
0.01370312
0.01237273
0.01237273
0.01113269
0.01113269
0.009982162
0.009982162
0.00892067
0.00892067
0.007947897
0.007947897
0.007063477
0.007063477
0.006266771
0.006266771
0.005556662
0.005556662
0.004931934
0.004931934
0.004391863
0.004391863
0.003936295
0.003936295
0.003565589
0.003565589
0.003280815
0.003280815
0.003084465
0.003084464
0.002981402
0.002981402
)
;

boundaryField
{
    leftandright
    {
        type            cyclic;
        value           nonuniform List<scalar> 
150
(
0.1698396
0.1527743
0.1381935
0.1260492
0.1163172
0.1089881
0.1040541
0.1014923
0.1012502
0.1032357
0.1073181
0.1133361
0.1209204
0.129232
0.1375561
0.1452874
0.1519491
0.1572032
0.1608497
0.162816
0.1631363
0.1619284
0.1593666
0.1556583
0.1510225
0.1456742
0.1398125
0.1336142
0.1272298
0.1207832
0.114373
0.1080751
0.1019453
0.09602286
0.09033349
0.08489225
0.07970595
0.07477525
0.07009631
0.06566218
0.06146389
0.05749122
0.05373337
0.05017937
0.0468184
0.04363999
0.04063411
0.03779128
0.03510255
0.03255955
0.03015445
0.02787999
0.02572944
0.02369666
0.02177607
0.01996269
0.01825213
0.01664065
0.01512514
0.01370312
0.01237273
0.01113269
0.009982162
0.00892067
0.007947897
0.007063477
0.006266771
0.005556662
0.004931934
0.004391863
0.003936295
0.003565589
0.003280815
0.003084464
0.002981402
0.1698396
0.1527743
0.1381935
0.1260492
0.1163172
0.1089881
0.1040541
0.1014923
0.1012502
0.1032357
0.1073181
0.1133361
0.1209204
0.129232
0.1375561
0.1452874
0.1519491
0.1572032
0.1608497
0.162816
0.1631363
0.1619284
0.1593666
0.1556583
0.1510225
0.1456742
0.1398125
0.1336142
0.1272298
0.1207832
0.114373
0.1080751
0.1019453
0.09602286
0.09033349
0.08489225
0.07970595
0.07477525
0.07009631
0.06566218
0.06146389
0.05749122
0.05373337
0.05017937
0.0468184
0.04363999
0.04063411
0.03779128
0.03510255
0.03255955
0.03015445
0.02787999
0.02572944
0.02369666
0.02177607
0.01996269
0.01825213
0.01664065
0.01512514
0.01370312
0.01237273
0.01113269
0.009982162
0.00892067
0.007947897
0.007063477
0.006266771
0.005556662
0.004931934
0.004391863
0.003936295
0.003565589
0.003280815
0.003084464
0.002981402
)
;
    }
    wall
    {
        type            calculated;
        value           nonuniform List<scalar> 2(0.1798964 0.1798964);
    }
    frontAndBack
    {
        type            empty;
    }
    middle
    {
        type            symmetryPlane;
        value           nonuniform List<scalar> 2(0.002981402 0.002981402);
    }
}


// ************************************************************************* //
