/*--------------------------------*- C++ -*----------------------------------*\
| =========                 |                                                 |
| \\      /  F ield         | foam-extend: Open Source CFD                    |
|  \\    /   O peration     | Version:     4.0                                |
|   \\  /    A nd           | Web:         http://www.foam-extend.org         |
|    \\/     M anipulation  |                                                 |
\*---------------------------------------------------------------------------*/
FoamFile
{
    version     2.0;
    format      ascii;
    class       volScalarField;
    location    "100";
    object      epsilonV;
}
// * * * * * * * * * * * * * * * * * * * * * * * * * * * * * * * * * * * * * //

dimensions      [0 2 -3 0 0 0 0];

internalField   nonuniform List<scalar> 
150
(
1.693308e-06
1.693648e-06
8.801661e-05
8.801918e-05
0.0005721248
0.0005721347
0.002026922
0.002026944
0.005249828
0.005249864
0.01116532
0.01116537
0.02065658
0.02065663
0.03435939
0.03435945
0.05249798
0.05249806
0.07484422
0.07484429
0.1007098
0.1007098
0.1335309
0.133531
0.1845539
0.1845541
0.2406499
0.2406499
0.3005015
0.3005017
0.362728
0.3627284
0.426125
0.4261256
0.489617
0.4896176
0.5522135
0.5522142
0.6129788
0.6129795
0.6710115
0.6710122
0.725431
0.7254317
0.7753774
0.7753782
0.8200208
0.8200215
0.8585774
0.8585782
0.8903371
0.8903379
0.9146933
0.9146941
0.9311684
0.9311693
0.9394427
0.9394431
0.9393711
0.9393719
0.9309974
0.9309982
0.914559
0.9145602
0.8904854
0.8904862
0.8593892
0.85939
0.8220574
0.8220577
0.7794223
0.7794225
0.7325365
0.7325371
0.6825387
0.6825392
0.6306164
0.6306166
0.5779533
0.5779534
0.5256791
0.5256797
0.4748146
0.4748147
0.4262181
0.4262183
0.3805541
0.3805543
0.3382731
0.3382732
0.2996174
0.2996176
0.2646449
0.2646449
0.2332652
0.2332653
0.2052829
0.2052829
0.1804365
0.1804366
0.1584328
0.1584329
0.1389717
0.1389717
0.1217637
0.1217637
0.1065397
0.1065397
0.09305624
0.09305622
0.08109755
0.08109757
0.07047496
0.07047495
0.06102519
0.06102521
0.05260863
0.05260863
0.04510673
0.04510673
0.03841969
0.03841969
0.03246414
0.03246414
0.02717086
0.02717085
0.02248251
0.02248251
0.01835109
0.0183511
0.01473661
0.01473661
0.01160405
0.01160405
0.008907767
0.008907771
0.006627898
0.006627899
0.00469532
0.004695318
0.003202254
0.003202248
0.001753536
0.001753528
0.001477524
0.001477526
-0.000410609
-0.000410608
0.0004820346
0.0004820333
)
;

boundaryField
{
    leftandright
    {
        type            cyclic;
        value           nonuniform List<scalar> 
150
(
1.693478e-06
8.80179e-05
0.0005721297
0.002026933
0.005249846
0.01116534
0.02065661
0.03435942
0.05249802
0.07484425
0.1007098
0.133531
0.184554
0.2406499
0.3005016
0.3627282
0.4261253
0.4896173
0.5522139
0.6129792
0.6710119
0.7254313
0.7753778
0.8200212
0.8585778
0.8903375
0.9146937
0.9311689
0.9394429
0.9393715
0.9309978
0.9145596
0.8904858
0.8593896
0.8220575
0.7794224
0.7325368
0.682539
0.6306165
0.5779533
0.5256794
0.4748146
0.4262182
0.3805542
0.3382732
0.2996175
0.2646449
0.2332653
0.2052829
0.1804366
0.1584328
0.1389717
0.1217637
0.1065397
0.09305623
0.08109756
0.07047495
0.0610252
0.05260863
0.04510673
0.03841969
0.03246414
0.02717086
0.02248251
0.0183511
0.01473661
0.01160405
0.008907769
0.006627898
0.004695319
0.003202251
0.001753532
0.001477525
-0.0004106085
0.000482034
1.693478e-06
8.80179e-05
0.0005721297
0.002026933
0.005249846
0.01116534
0.02065661
0.03435942
0.05249802
0.07484425
0.1007098
0.133531
0.184554
0.2406499
0.3005016
0.3627282
0.4261253
0.4896173
0.5522139
0.6129792
0.6710119
0.7254313
0.7753778
0.8200212
0.8585778
0.8903375
0.9146937
0.9311689
0.9394429
0.9393715
0.9309978
0.9145596
0.8904858
0.8593896
0.8220575
0.7794224
0.7325368
0.682539
0.6306165
0.5779533
0.5256794
0.4748146
0.4262182
0.3805542
0.3382732
0.2996175
0.2646449
0.2332653
0.2052829
0.1804366
0.1584328
0.1389717
0.1217637
0.1065397
0.09305623
0.08109756
0.07047495
0.0610252
0.05260863
0.04510673
0.03841969
0.03246414
0.02717086
0.02248251
0.0183511
0.01473661
0.01160405
0.008907769
0.006627898
0.004695319
0.003202251
0.001753532
0.001477525
-0.0004106085
0.000482034
)
;
    }
    wall
    {
        type            calculated;
        value           nonuniform List<scalar> 2(8.20099e-10 8.202608e-10);
    }
    frontAndBack
    {
        type            empty;
    }
    middle
    {
        type            symmetryPlane;
        value           nonuniform List<scalar> 2(0.0004820346 0.0004820333);
    }
}


// ************************************************************************* //
