/*--------------------------------*- C++ -*----------------------------------*\
| =========                 |                                                 |
| \\      /  F ield         | foam-extend: Open Source CFD                    |
|  \\    /   O peration     | Version:     4.0                                |
|   \\  /    A nd           | Web:         http://www.foam-extend.org         |
|    \\/     M anipulation  |                                                 |
\*---------------------------------------------------------------------------*/
FoamFile
{
    version     2.0;
    format      ascii;
    class       volScalarField;
    location    "100";
    object      epsilon;
}
// * * * * * * * * * * * * * * * * * * * * * * * * * * * * * * * * * * * * * //

dimensions      [0 2 -3 0 0 0 0];

internalField   nonuniform List<scalar> 
150
(
50.95187
50.95188
45.83228
45.83229
41.45804
41.45805
37.81477
37.81477
34.89517
34.89517
32.69644
32.69644
31.21622
31.21622
30.4477
30.4477
30.37506
30.37506
30.97071
30.97071
32.19543
32.19543
34.00084
34.00085
36.27613
36.27614
38.76961
38.76961
41.26682
41.26683
43.58622
43.58622
45.58473
45.58474
47.16095
47.16096
48.25492
48.25493
48.84479
48.84479
48.9409
48.9409
48.57852
48.57852
47.80999
47.80999
46.69748
46.69748
45.30674
45.30675
43.70225
43.70225
41.94376
41.94376
40.08426
40.08426
38.16893
38.16893
36.23495
36.23495
34.31191
34.31191
32.42254
32.42254
30.5836
30.5836
28.80686
28.80686
27.10005
27.10005
25.46767
25.46767
23.91179
23.91179
22.43258
22.43258
21.02889
21.02889
19.69865
19.69865
18.43917
18.43917
17.24737
17.24737
16.12001
16.12001
15.05381
15.05381
14.04552
14.04552
13.092
13.092
12.19023
12.19023
11.33738
11.33738
10.53077
10.53077
9.767866
9.767866
9.046336
9.046336
8.363996
8.363996
7.718832
7.718832
7.108998
7.108998
6.532821
6.532821
5.988806
5.988806
5.475639
5.475639
4.992195
4.992195
4.537541
4.537541
4.110936
4.110936
3.71182
3.71182
3.339807
3.339807
2.994649
2.994648
2.676201
2.676201
2.384369
2.384369
2.119043
2.119043
1.880031
1.880031
1.666999
1.666999
1.47958
1.47958
1.317559
1.317559
1.180888
1.180888
1.069677
1.069677
0.9842446
0.9842446
0.9253394
0.9253393
0.8944206
0.8944205
)
;

boundaryField
{
    leftandright
    {
        type            cyclic;
        value           nonuniform List<scalar> 
150
(
50.95187
45.83228
41.45804
37.81477
34.89517
32.69644
31.21622
30.4477
30.37506
30.97071
32.19543
34.00084
36.27613
38.76961
41.26682
43.58622
45.58474
47.16095
48.25492
48.84479
48.9409
48.57852
47.80999
46.69748
45.30675
43.70225
41.94376
40.08426
38.16893
36.23495
34.31191
32.42254
30.5836
28.80686
27.10005
25.46767
23.91179
22.43258
21.02889
19.69865
18.43917
17.24737
16.12001
15.05381
14.04552
13.092
12.19023
11.33738
10.53077
9.767866
9.046336
8.363996
7.718832
7.108998
6.532821
5.988806
5.475639
4.992195
4.537541
4.110936
3.71182
3.339807
2.994648
2.676201
2.384369
2.119043
1.880031
1.666999
1.47958
1.317559
1.180888
1.069677
0.9842446
0.9253393
0.8944205
50.95187
45.83228
41.45804
37.81477
34.89517
32.69644
31.21622
30.4477
30.37506
30.97071
32.19543
34.00084
36.27613
38.76961
41.26682
43.58622
45.58474
47.16095
48.25492
48.84479
48.9409
48.57852
47.80999
46.69748
45.30675
43.70225
41.94376
40.08426
38.16893
36.23495
34.31191
32.42254
30.5836
28.80686
27.10005
25.46767
23.91179
22.43258
21.02889
19.69865
18.43917
17.24737
16.12001
15.05381
14.04552
13.092
12.19023
11.33738
10.53077
9.767866
9.046336
8.363996
7.718832
7.108998
6.532821
5.988806
5.475639
4.992195
4.537541
4.110936
3.71182
3.339807
2.994648
2.676201
2.384369
2.119043
1.880031
1.666999
1.47958
1.317559
1.180888
1.069677
0.9842446
0.9253393
0.8944205
)
;
    }
    wall
    {
        type            groovyBC;
        refValue        nonuniform List<scalar> 2(53.96891 53.96892);
        refGradient     uniform 0;
        valueFraction   uniform 1;
        value           nonuniform List<scalar> 2(53.96891 53.96892);
        valueExpression "2*nu*internalField(k)/sqr(mag(delta()))";
        gradientExpression "0";
        fractionExpression "1";
        evaluateDuringConstruction 0;
        variables       "";
        timelines       (
);
        lookuptables    (
);
    }
    frontAndBack
    {
        type            empty;
    }
    middle
    {
        type            symmetryPlane;
        value           nonuniform List<scalar> 2(0.8944206 0.8944205);
    }
}


// ************************************************************************* //
