/*--------------------------------*- C++ -*----------------------------------*\
| =========                 |                                                 |
| \\      /  F ield         | foam-extend: Open Source CFD                    |
|  \\    /   O peration     | Version:     4.0                                |
|   \\  /    A nd           | Web:         http://www.foam-extend.org         |
|    \\/     M anipulation  |                                                 |
\*---------------------------------------------------------------------------*/
FoamFile
{
    version     2.0;
    format      ascii;
    class       volScalarField;
    location    "100";
    object      EtauP;
}
// * * * * * * * * * * * * * * * * * * * * * * * * * * * * * * * * * * * * * //

dimensions      [0 2 -4 0 0 0 0];

internalField   nonuniform List<scalar> 
150
(
0.0002743992
0.0002744544
0.007607971
0.007608193
0.0359759
0.03597652
0.1040791
0.1040802
0.2336295
0.2336311
0.4472662
0.4472681
0.7661185
0.7661206
1.207469
1.207471
1.783211
1.783214
2.499542
2.499545
3.354133
3.354135
4.318403
4.318405
5.334549
5.334555
6.359891
6.359893
7.371959
7.371963
8.341444
8.341451
9.241958
9.241969
10.05099
10.051
10.75048
10.7505
11.32715
11.32717
11.77237
11.77239
12.08185
12.08186
12.25521
12.25522
12.2955
12.29551
12.20872
12.20873
12.00338
12.0034
11.69008
11.69009
11.28098
11.28099
10.78943
10.78943
10.2295
10.22951
9.615569
9.615577
8.961934
8.961946
8.282508
8.282514
7.590517
7.590523
6.898341
6.898343
6.217249
6.21725
5.557265
5.557269
4.927039
4.927043
4.333755
4.333756
3.782986
3.782987
3.278646
3.27865
2.822945
2.822946
2.416402
2.416403
2.058008
2.058009
1.745439
1.745439
1.47537
1.47537
1.243827
1.243828
1.046526
1.046526
0.8791626
0.8791628
0.7376341
0.7376342
0.6181772
0.6181774
0.5174422
0.5174423
0.4325118
0.4325118
0.360886
0.3608859
0.3004476
0.3004476
0.2494186
0.2494187
0.206314
0.206314
0.1698977
0.1698978
0.1391438
0.1391438
0.113201
0.1132009
0.09136231
0.09136229
0.07303934
0.07303933
0.05773967
0.05773966
0.04504775
0.04504775
0.03460816
0.03460817
0.02611375
0.02611375
0.01929315
0.01929316
0.01388147
0.01388147
0.009677395
0.009677397
0.006428195
0.006428192
0.004120993
0.004120985
0.002131769
0.002131759
0.001710811
0.001710813
-0.0004583397
-0.0004583386
0.0005272251
0.0005272237
)
;

boundaryField
{
    leftandright
    {
        type            cyclic;
        value           nonuniform List<scalar> 
150
(
0.0002744268
0.007608082
0.03597621
0.1040797
0.2336303
0.4472672
0.7661195
1.20747
1.783213
2.499544
3.354134
4.318404
5.334552
6.359892
7.371961
8.341447
9.241963
10.05099
10.75049
11.32716
11.77238
12.08186
12.25521
12.2955
12.20873
12.00339
11.69008
11.28098
10.78943
10.22951
9.615573
8.96194
8.282511
7.59052
6.898342
6.217249
5.557267
4.927041
4.333755
3.782986
3.278648
2.822945
2.416403
2.058009
1.745439
1.47537
1.243828
1.046526
0.8791627
0.7376341
0.6181773
0.5174422
0.4325118
0.360886
0.3004476
0.2494187
0.206314
0.1698977
0.1391438
0.113201
0.0913623
0.07303934
0.05773966
0.04504775
0.03460816
0.02611375
0.01929316
0.01388147
0.009677396
0.006428193
0.004120989
0.002131764
0.001710812
-0.0004583391
0.0005272244
0.0002744268
0.007608082
0.03597621
0.1040797
0.2336303
0.4472672
0.7661195
1.20747
1.783213
2.499544
3.354134
4.318404
5.334552
6.359892
7.371961
8.341447
9.241963
10.05099
10.75049
11.32716
11.77238
12.08186
12.25521
12.2955
12.20873
12.00339
11.69008
11.28098
10.78943
10.22951
9.615573
8.96194
8.282511
7.59052
6.898342
6.217249
5.557267
4.927041
4.333755
3.782986
3.278648
2.822945
2.416403
2.058009
1.745439
1.47537
1.243828
1.046526
0.8791627
0.7376341
0.6181773
0.5174422
0.4325118
0.360886
0.3004476
0.2494187
0.206314
0.1698977
0.1391438
0.113201
0.0913623
0.07303934
0.05773966
0.04504775
0.03460816
0.02611375
0.01929316
0.01388147
0.009677396
0.006428193
0.004120989
0.002131764
0.001710812
-0.0004583391
0.0005272244
)
;
    }
    wall
    {
        type            calculated;
        value           nonuniform List<scalar> 2(2.544439e-08 2.544941e-08);
    }
    frontAndBack
    {
        type            empty;
    }
    middle
    {
        type            symmetryPlane;
        value           nonuniform List<scalar> 2(0.0005272251 0.0005272237);
    }
}


// ************************************************************************* //
