/*--------------------------------*- C++ -*----------------------------------*\
| =========                 |                                                 |
| \\      /  F ield         | foam-extend: Open Source CFD                    |
|  \\    /   O peration     | Version:     4.0                                |
|   \\  /    A nd           | Web:         http://www.foam-extend.org         |
|    \\/     M anipulation  |                                                 |
\*---------------------------------------------------------------------------*/
FoamFile
{
    version     2.0;
    format      ascii;
    class       volScalarField;
    location    "100";
    object      eVyy;
}
// * * * * * * * * * * * * * * * * * * * * * * * * * * * * * * * * * * * * * //

dimensions      [0 2 -3 0 0 0 0];

internalField   nonuniform List<scalar> 
150
(
1.045428e-10
1.045638e-10
2.484884e-08
2.484957e-08
3.753382e-07
3.753448e-07
2.347212e-06
2.347238e-06
9.255185e-06
9.255249e-06
2.732045e-05
2.732057e-05
6.586092e-05
6.586109e-05
0.0001363834
0.0001363836
0.0002507241
0.0002507245
0.0004190269
0.0004190273
0.000647804
0.0006478043
0.0009712965
0.000971297
0.001498836
0.001498837
0.002162569
0.002162569
0.002970164
0.002970166
0.003927723
0.003927726
0.005041646
0.005041653
0.006317899
0.006317907
0.00776093
0.00776094
0.009372458
0.00937247
0.0111502
0.01115021
0.01308654
0.01308656
0.0151674
0.01516742
0.0173713
0.01737132
0.0196688
0.01966882
0.02202252
0.02202254
0.02438773
0.02438775
0.02671348
0.0267135
0.02894436
0.02894437
0.03102271
0.03102273
0.0328912
0.03289123
0.03449565
0.0344957
0.03578792
0.03578795
0.03672868
0.03672871
0.03729023
0.03729024
0.03745791
0.03745792
0.0372315
0.03723153
0.03662575
0.03662579
0.03567023
0.03567024
0.03440759
0.03440759
0.03289115
0.03289118
0.0311811
0.0311811
0.02933973
0.02933974
0.02742712
0.02742713
0.02549698
0.02549699
0.0235938
0.02359381
0.02175157
0.02175158
0.01999378
0.01999379
0.01833465
0.01833465
0.01678083
0.01678083
0.01533332
0.01533333
0.01398924
0.01398924
0.01274324
0.01274324
0.01158864
0.01158864
0.01051817
0.01051816
0.009524495
0.009524498
0.008600594
0.008600593
0.007739887
0.00773989
0.006936427
0.006936425
0.006184936
0.006184935
0.005480863
0.005480862
0.004820417
0.004820416
0.004200612
0.004200611
0.003619312
0.003619311
0.003075238
0.003075239
0.002568176
0.002568177
0.002098891
0.002098892
0.001666568
0.001666568
0.001277672
0.001277672
0.0009292482
0.0009292478
0.0006483445
0.0006483433
0.000361871
0.0003618694
0.000309558
0.0003095584
-8.695408e-05
-8.695386e-05
0.0001026664
0.0001026661
)
;

boundaryField
{
    leftandright
    {
        type            cyclic;
        value           nonuniform List<scalar> 
150
(
1.045533e-10
2.484921e-08
3.753415e-07
2.347225e-06
9.255217e-06
2.732051e-05
6.586101e-05
0.0001363835
0.0002507243
0.0004190271
0.0006478042
0.0009712967
0.001498837
0.002162569
0.002970165
0.003927724
0.005041649
0.006317903
0.007760935
0.009372464
0.01115021
0.01308655
0.01516741
0.01737131
0.01966881
0.02202253
0.02438774
0.02671349
0.02894436
0.03102272
0.03289121
0.03449567
0.03578793
0.0367287
0.03729023
0.03745791
0.03723152
0.03662577
0.03567023
0.03440759
0.03289117
0.0311811
0.02933973
0.02742713
0.02549699
0.02359381
0.02175157
0.01999378
0.01833465
0.01678083
0.01533332
0.01398924
0.01274324
0.01158864
0.01051816
0.009524497
0.008600594
0.007739888
0.006936426
0.006184935
0.005480862
0.004820416
0.004200611
0.003619311
0.003075238
0.002568177
0.002098892
0.001666568
0.001277672
0.000929248
0.0006483439
0.0003618702
0.0003095582
-8.695397e-05
0.0001026662
1.045533e-10
2.484921e-08
3.753415e-07
2.347225e-06
9.255217e-06
2.732051e-05
6.586101e-05
0.0001363835
0.0002507243
0.0004190271
0.0006478042
0.0009712967
0.001498837
0.002162569
0.002970165
0.003927724
0.005041649
0.006317903
0.007760935
0.009372464
0.01115021
0.01308655
0.01516741
0.01737131
0.01966881
0.02202253
0.02438774
0.02671349
0.02894436
0.03102272
0.03289121
0.03449567
0.03578793
0.0367287
0.03729023
0.03745791
0.03723152
0.03662577
0.03567023
0.03440759
0.03289117
0.0311811
0.02933973
0.02742713
0.02549699
0.02359381
0.02175157
0.01999378
0.01833465
0.01678083
0.01533332
0.01398924
0.01274324
0.01158864
0.01051816
0.009524497
0.008600594
0.007739888
0.006936426
0.006184935
0.005480862
0.004820416
0.004200611
0.003619311
0.003075238
0.002568177
0.002098892
0.001666568
0.001277672
0.000929248
0.0006483439
0.0003618702
0.0003095582
-8.695397e-05
0.0001026662
)
;
    }
    wall
    {
        type            calculated;
        value           nonuniform List<scalar> 2(5.330644e-10 5.331695e-10);
    }
    frontAndBack
    {
        type            empty;
    }
    middle
    {
        type            symmetryPlane;
        value           nonuniform List<scalar> 2(0.0001026664 0.0001026661);
    }
}


// ************************************************************************* //
