/*--------------------------------*- C++ -*----------------------------------*\
| =========                 |                                                 |
| \\      /  F ield         | foam-extend: Open Source CFD                    |
|  \\    /   O peration     | Version:     4.0                                |
|   \\  /    A nd           | Web:         http://www.foam-extend.org         |
|    \\/     M anipulation  |                                                 |
\*---------------------------------------------------------------------------*/
FoamFile
{
    version     2.0;
    format      ascii;
    class       volScalarField;
    location    "100";
    object      f;
}
// * * * * * * * * * * * * * * * * * * * * * * * * * * * * * * * * * * * * * //

dimensions      [0 0 -1 0 0 0 0];

internalField   nonuniform List<scalar> 
150
(
0.02744332
0.02744332
0.08248538
0.08248538
0.1391035
0.1391035
0.1973744
0.1973744
0.2573615
0.2573615
0.3191109
0.319111
0.3826444
0.3826444
0.4479511
0.4479512
0.5149778
0.5149778
0.5836154
0.5836154
0.6536848
0.6536848
0.7249188
0.7249188
0.7970446
0.7970447
0.869965
0.869965
0.9435165
0.9435165
1.017487
1.017487
1.091629
1.091629
1.165673
1.165673
1.239334
1.239334
1.312323
1.312323
1.38435
1.38435
1.455131
1.455131
1.524392
1.524392
1.59187
1.59187
1.657316
1.657316
1.720493
1.720493
1.781179
1.781179
1.839164
1.839165
1.894252
1.894252
1.946256
1.946256
1.994998
1.994998
2.04031
2.04031
2.082029
2.082029
2.120042
2.120042
2.15449
2.15449
2.185498
2.185498
2.213179
2.213179
2.237637
2.237637
2.258966
2.258966
2.277252
2.277252
2.292574
2.292574
2.305006
2.305006
2.314616
2.314616
2.321472
2.321472
2.325636
2.325636
2.327168
2.327168
2.32613
2.32613
2.322581
2.322581
2.316581
2.316581
2.308191
2.308191
2.297473
2.297473
2.284492
2.284492
2.269314
2.269314
2.25201
2.25201
2.232655
2.232655
2.211328
2.211328
2.188116
2.188116
2.163112
2.163112
2.13642
2.13642
2.108155
2.108155
2.078446
2.078446
2.047444
2.047444
2.01532
2.01532
1.982283
1.982283
1.948578
1.948578
1.914509
1.914509
1.880452
1.880452
1.846876
1.846876
1.814372
1.814372
1.783658
1.783658
1.75556
1.75556
1.73099
1.73099
1.710932
1.710932
1.696428
1.696428
1.688584
1.688584
)
;

boundaryField
{
    leftandright
    {
        type            cyclic;
        value           nonuniform List<scalar> 
150
(
0.02744332
0.08248538
0.1391035
0.1973744
0.2573615
0.3191109
0.3826444
0.4479512
0.5149778
0.5836154
0.6536848
0.7249188
0.7970446
0.869965
0.9435165
1.017487
1.091629
1.165673
1.239334
1.312323
1.38435
1.455131
1.524392
1.59187
1.657316
1.720493
1.781179
1.839165
1.894252
1.946256
1.994998
2.04031
2.082029
2.120042
2.15449
2.185498
2.213179
2.237637
2.258966
2.277252
2.292574
2.305006
2.314616
2.321472
2.325636
2.327168
2.32613
2.322581
2.316581
2.308191
2.297473
2.284492
2.269314
2.25201
2.232655
2.211328
2.188116
2.163112
2.13642
2.108155
2.078446
2.047444
2.01532
1.982283
1.948578
1.914509
1.880452
1.846876
1.814372
1.783658
1.75556
1.73099
1.710932
1.696428
1.688584
0.02744332
0.08248538
0.1391035
0.1973744
0.2573615
0.3191109
0.3826444
0.4479512
0.5149778
0.5836154
0.6536848
0.7249188
0.7970446
0.869965
0.9435165
1.017487
1.091629
1.165673
1.239334
1.312323
1.38435
1.455131
1.524392
1.59187
1.657316
1.720493
1.781179
1.839165
1.894252
1.946256
1.994998
2.04031
2.082029
2.120042
2.15449
2.185498
2.213179
2.237637
2.258966
2.277252
2.292574
2.305006
2.314616
2.321472
2.325636
2.327168
2.32613
2.322581
2.316581
2.308191
2.297473
2.284492
2.269314
2.25201
2.232655
2.211328
2.188116
2.163112
2.13642
2.108155
2.078446
2.047444
2.01532
1.982283
1.948578
1.914509
1.880452
1.846876
1.814372
1.783658
1.75556
1.73099
1.710932
1.696428
1.688584
)
;
    }
    wall
    {
        type            fixedValue;
        value           uniform 1e-10;
    }
    frontAndBack
    {
        type            empty;
    }
    middle
    {
        type            symmetryPlane;
        value           nonuniform List<scalar> 2(1.688584 1.688584);
    }
}


// ************************************************************************* //
