/*--------------------------------*- C++ -*----------------------------------*\
| =========                 |                                                 |
| \\      /  F ield         | foam-extend: Open Source CFD                    |
|  \\    /   O peration     | Version:     4.0                                |
|   \\  /    A nd           | Web:         http://www.foam-extend.org         |
|    \\/     M anipulation  |                                                 |
\*---------------------------------------------------------------------------*/
FoamFile
{
    version     2.0;
    format      ascii;
    class       volScalarField;
    location    "100";
    object      fp;
}
// * * * * * * * * * * * * * * * * * * * * * * * * * * * * * * * * * * * * * //

dimensions      [0 0 0 0 0 0 0];

internalField   nonuniform List<scalar> 
150
(
1.391705
1.391785
1.391399
1.391418
1.390675
1.390677
1.389521
1.389521
1.387853
1.387853
1.385543
1.385544
1.382461
1.382463
1.378505
1.378507
1.37361
1.373611
1.367704
1.367705
1.360558
1.360559
1.351661
1.351661
1.340695
1.340695
1.327994
1.327994
1.314218
1.314217
1.299836
1.299835
1.285171
1.28517
1.270443
1.270442
1.255803
1.255803
1.241359
1.241359
1.227187
1.227187
1.21334
1.21334
1.199854
1.199854
1.186754
1.186754
1.174058
1.174058
1.161778
1.161778
1.149924
1.149924
1.138503
1.138503
1.127525
1.127525
1.116998
1.116998
1.10693
1.10693
1.09733
1.09733
1.088208
1.088208
1.079573
1.079573
1.071434
1.071434
1.0638
1.0638
1.056682
1.056682
1.050087
1.050087
1.044021
1.044021
1.038487
1.038487
1.033481
1.033481
1.028994
1.028994
1.02501
1.02501
1.021504
1.021504
1.018444
1.018444
1.015793
1.015793
1.013509
1.013509
1.011551
1.011551
1.009877
1.009877
1.008448
1.008448
1.007228
1.007228
1.006187
1.006187
1.005297
1.005297
1.004533
1.004533
1.003877
1.003877
1.003312
1.003312
1.002824
1.002824
1.002401
1.002401
1.002033
1.002033
1.001714
1.001714
1.001436
1.001436
1.001193
1.001193
1.000983
1.000983
1.000801
1.000801
1.000644
1.000644
1.000509
1.000509
1.000395
1.000395
1.0003
1.0003
1.00022
1.00022
1.000154
1.000154
1.000104
1.000104
1.000057
1.000057
1.000047
1.000047
1
1
1.000015
1.000015
)
;

boundaryField
{
    leftandright
    {
        type            cyclic;
        value           nonuniform List<scalar> 
150
(
1.391745
1.391409
1.390676
1.389521
1.387853
1.385544
1.382462
1.378506
1.37361
1.367704
1.360558
1.351661
1.340695
1.327994
1.314217
1.299835
1.28517
1.270442
1.255803
1.241359
1.227187
1.21334
1.199854
1.186754
1.174058
1.161778
1.149924
1.138503
1.127525
1.116998
1.10693
1.09733
1.088208
1.079573
1.071434
1.0638
1.056682
1.050087
1.044021
1.038487
1.033481
1.028994
1.02501
1.021504
1.018444
1.015793
1.013509
1.011551
1.009877
1.008448
1.007228
1.006187
1.005297
1.004533
1.003877
1.003312
1.002824
1.002401
1.002033
1.001714
1.001436
1.001193
1.000983
1.000801
1.000644
1.000509
1.000395
1.0003
1.00022
1.000154
1.000104
1.000057
1.000047
1
1.000015
1.391745
1.391409
1.390676
1.389521
1.387853
1.385544
1.382462
1.378506
1.37361
1.367704
1.360558
1.351661
1.340695
1.327994
1.314217
1.299835
1.28517
1.270442
1.255803
1.241359
1.227187
1.21334
1.199854
1.186754
1.174058
1.161778
1.149924
1.138503
1.127525
1.116998
1.10693
1.09733
1.088208
1.079573
1.071434
1.0638
1.056682
1.050087
1.044021
1.038487
1.033481
1.028994
1.02501
1.021504
1.018444
1.015793
1.013509
1.011551
1.009877
1.008448
1.007228
1.006187
1.005297
1.004533
1.003877
1.003312
1.002824
1.002401
1.002033
1.001714
1.001436
1.001193
1.000983
1.000801
1.000644
1.000509
1.000395
1.0003
1.00022
1.000154
1.000104
1.000057
1.000047
1
1.000015
)
;
    }
    wall
    {
        type            calculated;
        value           nonuniform List<scalar> 2(1.391705 1.391785);
    }
    frontAndBack
    {
        type            empty;
    }
    middle
    {
        type            symmetryPlane;
        value           nonuniform List<scalar> 2(1.000015 1.000015);
    }
}


// ************************************************************************* //
