/*--------------------------------*- C++ -*----------------------------------*\
| =========                 |                                                 |
| \\      /  F ield         | foam-extend: Open Source CFD                    |
|  \\    /   O peration     | Version:     4.0                                |
|   \\  /    A nd           | Web:         http://www.foam-extend.org         |
|    \\/     M anipulation  |                                                 |
\*---------------------------------------------------------------------------*/
FoamFile
{
    version     2.0;
    format      ascii;
    class       volScalarField;
    location    "100";
    object      k;
}
// * * * * * * * * * * * * * * * * * * * * * * * * * * * * * * * * * * * * * //

dimensions      [0 2 -2 0 0 0 0];

internalField   nonuniform List<scalar> 
150
(
0.003487277
0.003487278
0.03765058
0.03765059
0.1003817
0.1003818
0.1930068
0.1930068
0.3168918
0.3168919
0.4732911
0.4732912
0.6631279
0.663128
0.8867496
0.8867497
1.143729
1.14373
1.432795
1.432796
1.751924
1.751924
2.098017
2.098018
2.464351
2.464351
2.839804
2.839805
3.21441
3.21441
3.578626
3.578626
3.923986
3.923987
4.243548
4.243548
4.532129
4.532129
4.786355
4.786356
5.004558
5.004559
5.186558
5.186558
5.333385
5.333385
5.446979
5.446979
5.5299
5.5299
5.585066
5.585066
5.615541
5.615541
5.624365
5.624365
5.614435
5.614435
5.588426
5.588426
5.548741
5.548741
5.497499
5.497499
5.436529
5.436529
5.367387
5.367387
5.291375
5.291376
5.209575
5.209575
5.122868
5.122868
5.031971
5.031972
4.937459
4.937459
4.839789
4.839789
4.739325
4.739325
4.636356
4.636356
4.531113
4.531113
4.423781
4.423781
4.314513
4.314513
4.203435
4.203435
4.090658
4.090658
3.97628
3.97628
3.860389
3.860389
3.743074
3.743074
3.624419
3.624419
3.504516
3.504516
3.383467
3.383467
3.261388
3.261388
3.13842
3.13842
3.014736
3.014736
2.89055
2.89055
2.766129
2.766129
2.641805
2.641805
2.517985
2.517985
2.395159
2.395159
2.273914
2.273914
2.154931
2.154931
2.038982
2.038982
1.92692
1.92692
1.819653
1.819653
1.718113
1.718113
1.623218
1.623218
1.535906
1.535906
1.457209
1.457209
1.38825
1.38825
1.330222
1.330222
1.284371
1.284371
1.252064
1.252064
1.23486
1.23486
)
;

boundaryField
{
    leftandright
    {
        type            cyclic;
        value           nonuniform List<scalar> 
150
(
0.003487277
0.03765059
0.1003818
0.1930068
0.3168918
0.4732911
0.663128
0.8867496
1.14373
1.432796
1.751924
2.098018
2.464351
2.839805
3.21441
3.578626
3.923986
4.243548
4.532129
4.786356
5.004559
5.186558
5.333385
5.446979
5.5299
5.585066
5.615541
5.624365
5.614435
5.588426
5.548741
5.497499
5.436529
5.367387
5.291375
5.209575
5.122868
5.031972
4.937459
4.839789
4.739325
4.636356
4.531113
4.423781
4.314513
4.203435
4.090658
3.97628
3.860389
3.743074
3.624419
3.504516
3.383467
3.261388
3.13842
3.014736
2.89055
2.766129
2.641805
2.517985
2.395159
2.273914
2.154931
2.038982
1.92692
1.819653
1.718113
1.623218
1.535906
1.457209
1.38825
1.330222
1.284371
1.252064
1.23486
0.003487277
0.03765059
0.1003818
0.1930068
0.3168918
0.4732911
0.663128
0.8867496
1.14373
1.432796
1.751924
2.098018
2.464351
2.839805
3.21441
3.578626
3.923986
4.243548
4.532129
4.786356
5.004559
5.186558
5.333385
5.446979
5.5299
5.585066
5.615541
5.624365
5.614435
5.588426
5.548741
5.497499
5.436529
5.367387
5.291375
5.209575
5.122868
5.031972
4.937459
4.839789
4.739325
4.636356
4.531113
4.423781
4.314513
4.203435
4.090658
3.97628
3.860389
3.743074
3.624419
3.504516
3.383467
3.261388
3.13842
3.014736
2.89055
2.766129
2.641805
2.517985
2.395159
2.273914
2.154931
2.038982
1.92692
1.819653
1.718113
1.623218
1.535906
1.457209
1.38825
1.330222
1.284371
1.252064
1.23486
)
;
    }
    wall
    {
        type            fixedValue;
        value           uniform 1e-10;
    }
    frontAndBack
    {
        type            empty;
    }
    middle
    {
        type            symmetryPlane;
        value           nonuniform List<scalar> 2(1.23486 1.23486);
    }
}


// ************************************************************************* //
