/*--------------------------------*- C++ -*----------------------------------*\
| =========                 |                                                 |
| \\      /  F ield         | foam-extend: Open Source CFD                    |
|  \\    /   O peration     | Version:     4.0                                |
|   \\  /    A nd           | Web:         http://www.foam-extend.org         |
|    \\/     M anipulation  |                                                 |
\*---------------------------------------------------------------------------*/
FoamFile
{
    version     2.0;
    format      ascii;
    class       volSymmTensorField;
    location    "100";
    object      N;
}
// * * * * * * * * * * * * * * * * * * * * * * * * * * * * * * * * * * * * * //

dimensions      [0 2 -2 0 0 0 0];

internalField   nonuniform List<symmTensor> 
150
(
(0.006824665 0 0 3.31231e-07 0 0.0001495581)
(0.006824673 0 0 3.312311e-07 0 0.0001495509)
(0.0736698 0 0 1.635308e-05 0 0.001615009)
(0.07366983 0 0 1.635309e-05 0 0.001614991)
(0.1963545 0 0 0.0001013149 0 0.004307714)
(0.1963545 0 0 0.0001013149 0 0.004307709)
(0.3759437 0 0 0.0003438542 0 0.009726046)
(0.3759437 0 0 0.0003438543 0 0.009726048)
(0.6133363 0 0 0.0008594833 0 0.0195878)
(0.6133364 0 0 0.0008594835 0 0.01958781)
(0.9105232 0 0 0.001781687 0 0.03427735)
(0.9105233 0 0 0.001781688 0 0.03427735)
(1.268461 1.293375e-18 0 0.003252768 0 0.05454222)
(1.268461 -1.293375e-18 0 0.003252769 0 0.05454223)
(1.687091 0 0 0.00541506 0 0.08099292)
(1.687091 0 0 0.005415061 0 0.08099293)
(2.164972 0 0 0.008403558 0 0.1140829)
(2.164973 -4.824113e-18 0 0.008403559 0 0.1140829)
(2.699148 0 0 0.01234111 0 0.1541021)
(2.699148 0 0 0.01234111 0 0.1541021)
(3.28532 0 0 0.01733699 0 0.2011909)
(3.285321 0 0 0.01733699 0 0.2011909)
(3.917273 -1.822353e-17 0 0.02347824 0 0.2552836)
(3.917274 1.822353e-17 0 0.02347824 0 0.2552836)
(4.582155 0 0 0.03079072 0 0.3157567)
(4.582155 0 0 0.03079073 0 0.3157568)
(5.258867 2.435097e-17 0 0.0392608 0 0.3814814)
(5.258867 -2.435098e-17 0 0.03926081 0 0.3814815)
(5.928562 0 0 0.04887891 0 0.4513787)
(5.928562 0 0 0.04887892 0 0.4513787)
(6.573374 -2.992492e-17 0 0.05961594 0 0.5242616)
(6.573374 0 0 0.05961595 0 0.5242616)
(7.177642 0 0 0.07142483 0 0.5989059)
(7.177642 0 0 0.07142484 0 0.598906)
(7.728739 6.877017e-17 0 0.08424261 0 0.6741147)
(7.72874 0 0 0.08424262 0 0.6741147)
(8.217492 0 0 0.09799309 0 0.7487724)
(8.217493 0 0 0.09799311 0 0.7487725)
(8.638234 -1.496929e-16 0 0.1125899 0 0.8218865)
(8.638235 7.484646e-17 0 0.1125899 0 0.8218866)
(8.988564 0 0 0.1279396 0 0.8926136)
(8.988564 0 0 0.1279396 0 0.8926137)
(9.2689 1.559333e-16 0 0.1439443 0 0.9602717)
(9.2689 0 0 0.1439443 0 0.9602718)
(9.481924 1.569843e-16 0 0.1605046 0 1.024341)
(9.481924 0 0 0.1605046 0 1.024341)
(9.631986 0 0 0.177521 0 1.084451)
(9.631986 0 0 0.177521 0 1.084451)
(9.724536 -1.555159e-16 0 0.1948956 0 1.140368)
(9.724536 0 0 0.1948957 0 1.140368)
(9.765627 -1.532686e-16 0 0.2125334 0 1.191971)
(9.765628 0 0 0.2125335 0 1.191971)
(9.761507 -3.004007e-16 0 0.2303425 0 1.239232)
(9.761507 0 0 0.2303425 0 1.239232)
(9.7183 0 0 0.2482345 0 1.282195)
(9.7183 0 0 0.2482346 0 1.282195)
(9.64179 0 0 0.2661253 0 1.320955)
(9.64179 0 0 0.2661254 0 1.320955)
(9.537274 0 0 0.2839347 0 1.355642)
(9.537274 0 0 0.2839347 0 1.355642)
(9.409485 2.646174e-16 0 0.3015867 0 1.38641)
(9.409486 -2.646174e-16 0 0.3015868 0 1.38641)
(9.262565 2.53975e-16 0 0.31901 0 1.413423)
(9.262566 0 0 0.31901 0 1.413423)
(9.100071 -7.290462e-16 0 0.3361382 0 1.436849)
(9.100071 0 0 0.3361382 0 1.43685)
(8.925005 0 0 0.3529108 0 1.456857)
(8.925005 0 0 0.3529108 0 1.456858)
(8.739867 4.413602e-16 0 0.3692734 0 1.473611)
(8.739867 0 0 0.3692734 0 1.473611)
(8.546711 0 0 0.3851763 0 1.487262)
(8.546712 0 0 0.3851763 0 1.487262)
(8.347213 7.939244e-16 0 0.4005724 0 1.497951)
(8.347213 -3.969622e-16 0 0.4005725 0 1.497951)
(8.142724 0 0 0.4154168 0 1.505802)
(8.142724 0 0 0.4154168 0 1.505802)
(7.934327 0 0 0.4296657 0 1.510925)
(7.934327 0 0 0.4296657 0 1.510925)
(7.722887 0 0 0.4432763 0 1.513414)
(7.722887 0 0 0.4432763 0 1.513414)
(7.509091 0 0 0.4562065 0 1.513353)
(7.509091 0 0 0.4562065 0 1.513353)
(7.293485 0 0 0.4684149 0 1.510813)
(7.293485 0 0 0.4684149 0 1.510813)
(7.076507 0 0 0.4798612 0 1.505858)
(7.076507 0 0 0.4798612 0 1.505858)
(6.858511 -1.028926e-15 0 0.4905058 0 1.498546)
(6.858511 0 0 0.4905058 0 1.498546)
(6.639787 -4.800154e-16 0 0.5003105 0 1.488928)
(6.639787 0 0 0.5003105 0 1.488928)
(6.420578 0 0 0.5092392 0 1.477053)
(6.420578 0 0 0.5092392 0 1.477053)
(6.20109 0 0 0.5172576 0 1.462969)
(6.20109 0 0 0.5172576 0 1.462969)
(5.981504 0 0 0.5243344 0 1.446721)
(5.981504 0 0 0.5243344 0 1.446721)
(5.761981 7.143225e-16 0 0.5304415 0 1.428357)
(5.761981 0 0 0.5304415 0 1.428357)
(5.542666 6.602539e-16 0 0.5355548 0 1.407926)
(5.542666 -6.602539e-16 0 0.5355548 0 1.407926)
(5.323701 0 0 0.5396549 0 1.385482)
(5.323701 0 0 0.5396549 0 1.385482)
(5.105224 0 0 0.542728 0 1.36108)
(5.105224 0 0 0.542728 0 1.36108)
(4.887381 0 0 0.5447666 0 1.334786)
(4.887381 0 0 0.5447666 0 1.334786)
(4.670335 0 0 0.5457706 0 1.30667)
(4.670335 0 0 0.5457705 0 1.30667)
(4.454276 0 0 0.545748 0 1.276816)
(4.454276 0 0 0.545748 0 1.276816)
(4.239435 -7.863492e-16 0 0.5447159 0 1.24532)
(4.239435 7.863492e-16 0 0.5447159 0 1.24532)
(4.026103 0 0 0.5427011 0 1.212295)
(4.026103 0 0 0.5427011 0 1.212295)
(3.814645 0 0 0.5397399 0 1.177873)
(3.814645 0 0 0.5397399 0 1.177873)
(3.605523 -5.860088e-16 0 0.5358783 0 1.142209)
(3.605523 5.860088e-16 0 0.5358783 0 1.142209)
(3.399316 0 0 0.53117 0 1.105483)
(3.399316 0 0 0.53117 0 1.105483)
(3.196743 0 0 0.5256734 0 1.067902)
(3.196743 0 0 0.5256734 0 1.067902)
(2.998681 0 0 0.5194471 0 1.0297)
(2.998681 0 0 0.5194471 0 1.0297)
(2.806181 -1.515747e-15 0 0.5125416 0 0.9911389)
(2.806181 0 0 0.5125416 0 0.9911389)
(2.620478 0 0 0.5049882 0 0.9524985)
(2.620478 -6.741866e-16 0 0.5049882 0 0.9524985)
(2.442985 0 0 0.4967835 0 0.9140721)
(2.442985 0 0 0.4967835 0 0.9140721)
(2.275288 0 0 0.4878683 0 0.8761493)
(2.275288 0 0 0.4878683 0 0.8761493)
(2.11913 0 0 0.4781 0 0.8389954)
(2.11913 -9.363541e-16 0 0.4781 0 0.8389954)
(1.976399 0 0 0.4672158 0 0.802821)
(1.976399 0 0 0.4672158 0 0.802821)
(1.848085 0 0 0.4555068 0 0.768221)
(1.848085 0 0 0.4555068 0 0.768221)
(1.734662 0 0 0.4436853 0 0.7360704)
(1.734662 0 0 0.4436853 0 0.7360704)
(1.636863 0 0 0.4324187 0 0.7072186)
(1.636863 0 0 0.4324187 0 0.7072186)
(1.555628 0 0 0.4223282 0 0.6824883)
(1.555628 0 0 0.4223282 0 0.6824883)
(1.492082 0 0 0.4139852 0 0.6626756)
(1.492082 0 0 0.4139852 0 0.6626755)
(1.44763 0 0 0.4079198 0 0.6485783)
(1.44763 0 0 0.4079198 0 0.6485783)
(1.424068 -8.23262e-16 0 0.4046266 0 0.6410252)
(1.424068 0 0 0.4046266 0 0.6410252)
)
;

boundaryField
{
    leftandright
    {
        type            cyclic;
        value           nonuniform List<symmTensor> 
150
(
(0.006824669 0 0 3.31231e-07 0 0.0001495545)
(0.07366982 0 0 1.635308e-05 0 0.001615)
(0.1963545 0 0 0.0001013149 0 0.004307712)
(0.3759437 0 0 0.0003438542 0 0.009726047)
(0.6133364 0 0 0.0008594834 0 0.0195878)
(0.9105232 0 0 0.001781688 0 0.03427735)
(1.268461 -7.112153e-34 0 0.003252768 0 0.05454223)
(1.687091 0 0 0.00541506 0 0.08099292)
(2.164973 -2.412056e-18 0 0.008403559 0 0.1140829)
(2.699148 0 0 0.01234111 0 0.1541021)
(3.285321 0 0 0.01733699 0 0.2011909)
(3.917273 -1.428611e-33 0 0.02347824 0 0.2552836)
(4.582155 0 0 0.03079072 0 0.3157567)
(5.258867 6.327293e-33 0 0.03926081 0 0.3814815)
(5.928562 0 0 0.04887891 0 0.4513787)
(6.573374 -1.496246e-17 0 0.05961595 0 0.5242616)
(7.177642 0 0 0.07142484 0 0.5989059)
(7.728739 3.438509e-17 0 0.08424261 0 0.6741147)
(8.217493 0 0 0.0979931 0 0.7487725)
(8.638235 -3.742323e-17 0 0.1125899 0 0.8218866)
(8.988564 0 0 0.1279396 0 0.8926136)
(9.2689 7.796664e-17 0 0.1439443 0 0.9602718)
(9.481924 7.849216e-17 0 0.1605046 0 1.024341)
(9.631986 0 0 0.177521 0 1.084451)
(9.724536 -7.775794e-17 0 0.1948957 0 1.140368)
(9.765628 -7.663432e-17 0 0.2125334 0 1.191971)
(9.761507 -1.502003e-16 0 0.2303425 0 1.239232)
(9.7183 0 0 0.2482345 0 1.282195)
(9.64179 0 0 0.2661254 0 1.320955)
(9.537274 0 0 0.2839347 0 1.355642)
(9.409486 0 0 0.3015868 0 1.38641)
(9.262565 1.269875e-16 0 0.31901 0 1.413423)
(9.100071 -3.645231e-16 0 0.3361382 0 1.436849)
(8.925005 0 0 0.3529108 0 1.456857)
(8.739867 2.206801e-16 0 0.3692734 0 1.473611)
(8.546711 0 0 0.3851763 0 1.487262)
(8.347213 1.984811e-16 0 0.4005725 0 1.497951)
(8.142724 0 0 0.4154168 0 1.505802)
(7.934327 0 0 0.4296657 0 1.510925)
(7.722887 0 0 0.4432763 0 1.513414)
(7.509091 0 0 0.4562065 0 1.513353)
(7.293485 0 0 0.4684149 0 1.510813)
(7.076507 0 0 0.4798612 0 1.505858)
(6.858511 -5.144631e-16 0 0.4905058 0 1.498546)
(6.639787 -2.400077e-16 0 0.5003105 0 1.488928)
(6.420578 0 0 0.5092392 0 1.477053)
(6.20109 0 0 0.5172576 0 1.462969)
(5.981504 0 0 0.5243344 0 1.446721)
(5.761981 3.571613e-16 0 0.5304415 0 1.428357)
(5.542666 7.31191e-31 0 0.5355548 0 1.407926)
(5.323701 0 0 0.5396549 0 1.385482)
(5.105224 0 0 0.542728 0 1.36108)
(4.887381 0 0 0.5447666 0 1.334786)
(4.670335 0 0 0.5457705 0 1.30667)
(4.454276 0 0 0.545748 0 1.276816)
(4.239435 -6.908489e-32 0 0.5447159 0 1.24532)
(4.026103 0 0 0.5427011 0 1.212295)
(3.814645 0 0 0.5397399 0 1.177873)
(3.605523 -1.195777e-31 0 0.5358783 0 1.142209)
(3.399316 0 0 0.53117 0 1.105483)
(3.196743 0 0 0.5256734 0 1.067902)
(2.998681 0 0 0.5194471 0 1.0297)
(2.806181 -7.578736e-16 0 0.5125416 0 0.9911389)
(2.620478 -3.370933e-16 0 0.5049882 0 0.9524985)
(2.442985 0 0 0.4967835 0 0.9140721)
(2.275288 0 0 0.4878683 0 0.8761493)
(2.11913 -4.681771e-16 0 0.4781 0 0.8389954)
(1.976399 0 0 0.4672158 0 0.802821)
(1.848085 0 0 0.4555068 0 0.768221)
(1.734662 0 0 0.4436853 0 0.7360704)
(1.636863 0 0 0.4324187 0 0.7072186)
(1.555628 0 0 0.4223282 0 0.6824883)
(1.492082 0 0 0.4139852 0 0.6626756)
(1.44763 0 0 0.4079198 0 0.6485783)
(1.424068 -4.11631e-16 0 0.4046266 0 0.6410252)
(0.006824669 0 0 3.31231e-07 0 0.0001495545)
(0.07366982 0 0 1.635308e-05 0 0.001615)
(0.1963545 0 0 0.0001013149 0 0.004307712)
(0.3759437 0 0 0.0003438542 0 0.009726047)
(0.6133364 0 0 0.0008594834 0 0.0195878)
(0.9105232 0 0 0.001781688 0 0.03427735)
(1.268461 -7.902393e-34 0 0.003252768 0 0.05454223)
(1.687091 0 0 0.00541506 0 0.08099292)
(2.164973 -2.412056e-18 0 0.008403559 0 0.1140829)
(2.699148 0 0 0.01234111 0 0.1541021)
(3.285321 0 0 0.01733699 0 0.2011909)
(3.917273 -1.428611e-33 0 0.02347824 0 0.2552836)
(4.582155 0 0 0.03079072 0 0.3157567)
(5.258867 6.327293e-33 0 0.03926081 0 0.3814815)
(5.928562 0 0 0.04887891 0 0.4513787)
(6.573374 -1.496246e-17 0 0.05961595 0 0.5242616)
(7.177642 0 0 0.07142484 0 0.5989059)
(7.728739 3.438509e-17 0 0.08424261 0 0.6741147)
(8.217493 0 0 0.0979931 0 0.7487725)
(8.638235 -3.742323e-17 0 0.1125899 0 0.8218866)
(8.988564 0 0 0.1279396 0 0.8926136)
(9.2689 7.796664e-17 0 0.1439443 0 0.9602718)
(9.481924 7.849216e-17 0 0.1605046 0 1.024341)
(9.631986 0 0 0.177521 0 1.084451)
(9.724536 -7.775794e-17 0 0.1948957 0 1.140368)
(9.765628 -7.663432e-17 0 0.2125334 0 1.191971)
(9.761507 -1.502003e-16 0 0.2303425 0 1.239232)
(9.7183 0 0 0.2482345 0 1.282195)
(9.64179 0 0 0.2661254 0 1.320955)
(9.537274 0 0 0.2839347 0 1.355642)
(9.409486 0 0 0.3015868 0 1.38641)
(9.262565 1.269875e-16 0 0.31901 0 1.413423)
(9.100071 -3.645231e-16 0 0.3361382 0 1.436849)
(8.925005 0 0 0.3529108 0 1.456857)
(8.739867 2.206801e-16 0 0.3692734 0 1.473611)
(8.546711 0 0 0.3851763 0 1.487262)
(8.347213 1.984811e-16 0 0.4005725 0 1.497951)
(8.142724 0 0 0.4154168 0 1.505802)
(7.934327 0 0 0.4296657 0 1.510925)
(7.722887 0 0 0.4432763 0 1.513414)
(7.509091 0 0 0.4562065 0 1.513353)
(7.293485 0 0 0.4684149 0 1.510813)
(7.076507 0 0 0.4798612 0 1.505858)
(6.858511 -5.144631e-16 0 0.4905058 0 1.498546)
(6.639787 -2.400077e-16 0 0.5003105 0 1.488928)
(6.420578 0 0 0.5092392 0 1.477053)
(6.20109 0 0 0.5172576 0 1.462969)
(5.981504 0 0 0.5243344 0 1.446721)
(5.761981 3.571613e-16 0 0.5304415 0 1.428357)
(5.542666 7.31191e-31 0 0.5355548 0 1.407926)
(5.323701 0 0 0.5396549 0 1.385482)
(5.105224 0 0 0.542728 0 1.36108)
(4.887381 0 0 0.5447666 0 1.334786)
(4.670335 0 0 0.5457705 0 1.30667)
(4.454276 0 0 0.545748 0 1.276816)
(4.239435 -6.908489e-32 0 0.5447159 0 1.24532)
(4.026103 0 0 0.5427011 0 1.212295)
(3.814645 0 0 0.5397399 0 1.177873)
(3.605523 -1.195777e-31 0 0.5358783 0 1.142209)
(3.399316 0 0 0.53117 0 1.105483)
(3.196743 0 0 0.5256734 0 1.067902)
(2.998681 0 0 0.5194471 0 1.0297)
(2.806181 -7.578736e-16 0 0.5125416 0 0.9911389)
(2.620478 -3.370933e-16 0 0.5049882 0 0.9524985)
(2.442985 0 0 0.4967835 0 0.9140721)
(2.275288 0 0 0.4878683 0 0.8761493)
(2.11913 -4.681771e-16 0 0.4781 0 0.8389954)
(1.976399 0 0 0.4672158 0 0.802821)
(1.848085 0 0 0.4555068 0 0.768221)
(1.734662 0 0 0.4436853 0 0.7360704)
(1.636863 0 0 0.4324187 0 0.7072186)
(1.555628 0 0 0.4223282 0 0.6824883)
(1.492082 0 0 0.4139852 0 0.6626756)
(1.44763 0 0 0.4079198 0 0.6485783)
(1.424068 -4.11631e-16 0 0.4046266 0 0.6410252)
)
;
    }
    wall
    {
        type            calculated;
        value           uniform (3.333333e-11 0 0 1e-10 0 6.666667e-11);
    }
    frontAndBack
    {
        type            empty;
    }
    middle
    {
        type            symmetryPlane;
        value           nonuniform List<symmTensor> 2((1.424068 0 0 0.6410252 0 0.6410252) (1.424068 0 0 0.6410252 0 0.6410252));
    }
}


// ************************************************************************* //
