/*--------------------------------*- C++ -*----------------------------------*\
| =========                 |                                                 |
| \\      /  F ield         | foam-extend: Open Source CFD                    |
|  \\    /   O peration     | Version:     4.0                                |
|   \\  /    A nd           | Web:         http://www.foam-extend.org         |
|    \\/     M anipulation  |                                                 |
\*---------------------------------------------------------------------------*/
FoamFile
{
    version     2.0;
    format      ascii;
    class       volSymmTensorField;
    location    "100";
    object      NLT;
}
// * * * * * * * * * * * * * * * * * * * * * * * * * * * * * * * * * * * * * //

dimensions      [0 0 -1 0 0 0 0];

internalField   nonuniform List<symmTensor> 
150
(
(0.0008759795 0 0 5.408188e-08 0 0)
(0.0008761053 0 0 5.408965e-08 0 0)
(0.04553259 0 0 1.285475e-05 0 0)
(0.04553331 0 0 1.285495e-05 0 0)
(0.296014 0 0 0.0001941977 0 0)
(0.2960187 0 0 0.0001942008 0 0)
(1.049062 0 0 0.001214832 0 0)
(1.049074 0 0 0.001214846 0 0)
(2.718748 0 0 0.004793014 0 0)
(2.718764 0 0 0.004793044 0 0)
(5.787912 0 0 0.01416245 0 0)
(5.78793 0 0 0.0141625 0 0)
(10.72396 -8.62225e-19 0 0.03419198 0 0)
(10.72397 8.622262e-19 0 0.03419203 0 0)
(17.87512 0 0 0.07095198 0 0)
(17.87512 0 0 0.07095201 0 0)
(27.38686 0 0 0.1307963 0 0)
(27.38687 5.970671e-18 0 0.1307964 0 0)
(39.18083 0 0 0.2193598 0 0)
(39.18084 0 0 0.2193599 0 0)
(52.95441 0 0 0.3406229 0 0)
(52.95442 0 0 0.340623 0 0)
(70.61527 4.038103e-17 0 0.5136513 0 0)
(70.61529 -4.038105e-17 0 0.5136515 0 0)
(98.31336 0 0 0.7984416 0 0)
(98.31347 0 0 0.7984426 0 0)
(129.3112 -8.268571e-17 0 1.162038 0 0)
(129.3113 8.268576e-17 0 1.162039 0 0)
(163.0197 0 0 1.61129 0 0)
(163.0198 0 0 1.611291 0 0)
(198.7684 1.386175e-16 0 2.15232 0 0)
(198.7687 0 0 2.152323 0 0)
(235.9393 0 0 2.791485 0 0)
(235.9397 0 0 2.79149 0 0)
(273.9463 -4.121201e-16 0 3.534936 0 0)
(273.9467 0 0 3.534941 0 0)
(312.217 0 0 4.387964 0 0)
(312.2174 0 0 4.387971 0 0)
(350.1789 1.129981e-15 0 5.354241 0 0)
(350.1794 -5.649914e-16 0 5.354248 0 0)
(387.2523 0 0 6.434969 0 0)
(387.2528 0 0 6.434978 0 0)
(422.845 -1.457083e-15 0 7.627986 0 0)
(422.8455 0 0 7.627995 0 0)
(456.356 -1.622283e-15 0 8.926921 0 0)
(456.3565 0 0 8.926931 0 0)
(487.1833 0 0 10.32048 0 0)
(487.1838 0 0 10.32049 0 0)
(514.7369 1.939589e-15 0 11.79189 0 0)
(514.7374 0 0 11.79191 0 0)
(538.4582 2.084207e-15 0 13.31878 0 0)
(538.4587 0 0 13.31879 0 0)
(557.8421 4.428577e-15 0 14.87329 0 0)
(557.8425 0 0 14.8733 0 0)
(572.4567 0 0 16.4227 0 0)
(572.4572 0 0 16.42272 0 0)
(581.9662 0 0 17.93045 0 0)
(581.9664 0 0 17.93046 0 0)
(586.1469 0 0 19.35748 0 0)
(586.1473 0 0 19.3575 0 0)
(584.901 -5.040491e-15 0 20.66396 0 0)
(584.9015 5.040495e-15 0 20.66397 0 0)
(578.2654 -5.06162e-15 0 21.81121 0 0)
(578.2661 0 0 21.81124 0 0)
(566.4151 1.507738e-14 0 22.76378 0 0)
(566.4155 0 0 22.7638 0 0)
(549.6612 0 0 23.49148 0 0)
(549.6616 0 0 23.4915 0 0)
(528.4482 -9.580468e-15 0 23.9715 0 0)
(528.4484 0 0 23.97151 0 0)
(503.3377 0 0 24.18968 0 0)
(503.3378 0 0 24.18968 0 0)
(474.9923 -1.746588e-14 0 24.1417 0 0)
(474.9927 8.732946e-15 0 24.14172 0 0)
(444.1537 0 0 23.83376 0 0)
(444.1541 0 0 23.83378 0 0)
(411.6162 0 0 23.28268 0 0)
(411.6163 0 0 23.28269 0 0)
(378.1895 0 0 22.51494 0 0)
(378.1895 0 0 22.51495 0 0)
(344.6621 0 0 21.56512 0 0)
(344.6625 0 0 21.56514 0 0)
(311.7602 0 0 20.4733 0 0)
(311.7602 0 0 20.47331 0 0)
(280.1073 0 0 19.28184 0 0)
(280.1074 0 0 19.28185 0 0)
(250.1986 1.840581e-14 0 18.0322 0 0)
(250.1987 0 0 18.0322 0 0)
(222.3838 8.138629e-15 0 16.76194 0 0)
(222.3839 0 0 16.76195 0 0)
(196.868 0 0 15.50265 0 0)
(196.868 0 0 15.50266 0 0)
(173.7257 0 0 14.27879 0 0)
(173.7258 0 0 14.27879 0 0)
(152.9255 0 0 13.10765 0 0)
(152.9256 0 0 13.10765 0 0)
(134.3581 -9.546465e-15 0 12.00006 0 0)
(134.3581 0 0 12.00007 0 0)
(117.8645 -8.296241e-15 0 10.96155 0 0)
(117.8645 8.296242e-15 0 10.96155 0 0)
(103.2594 0 0 9.993571 0 0)
(103.2594 0 0 9.993575 0 0)
(90.34955 0 0 9.094807 0 0)
(90.34957 0 0 9.094808 0 0)
(78.94585 0 0 8.262115 0 0)
(78.94587 0 0 8.262116 0 0)
(68.87108 0 0 7.491313 0 0)
(68.87107 0 0 7.491312 0 0)
(59.96396 0 0 6.777739 0 0)
(59.96395 0 0 6.777737 0 0)
(52.08084 6.865228e-15 0 6.116629 0 0)
(52.08085 -6.86523e-15 0 6.116631 0 0)
(45.09571 0 0 5.503372 0 0)
(45.0957 0 0 5.503371 0 0)
(38.89927 0 0 4.933633 0 0)
(38.89929 0 0 4.933635 0 0)
(33.39786 4.255904e-15 0 4.403494 0 0)
(33.39785 -4.255903e-15 0 4.403493 0 0)
(28.51181 0 0 3.909476 0 0)
(28.5118 0 0 3.909475 0 0)
(24.17393 0 0 3.448596 0 0)
(24.17393 0 0 3.448595 0 0)
(20.32794 0 0 3.018381 0 0)
(20.32794 0 0 3.01838 0 0)
(16.92691 8.287878e-15 0 2.616898 0 0)
(16.9269 0 0 2.616897 0 0)
(13.93168 0 0 2.24277 0 0)
(13.93168 3.378795e-15 0 2.24277 0 0)
(11.30913 0 0 1.89516 0 0)
(11.30913 0 0 1.895161 0 0)
(9.031089 0 0 1.573865 0 0)
(9.031092 0 0 1.573866 0 0)
(7.072389 0 0 1.279224 0 0)
(7.072392 3.318987e-15 0 1.279225 0 0)
(5.40116 0 0 1.010511 0 0)
(5.401163 0 0 1.010512 0 0)
(3.999957 0 0 0.7710789 0 0)
(3.999958 0 0 0.7710791 0 0)
(2.821673 0 0 0.5584358 0 0)
(2.821672 0 0 0.5584356 0 0)
(1.917214 0 0 0.3881689 0 0)
(1.917211 0 0 0.3881681 0 0)
(1.04651 0 0 0.2159645 0 0)
(1.046505 0 0 0.2159636 0 0)
(0.8795017 0 0 0.1842656 0 0)
(0.8795029 0 0 0.1842658 0 0)
(-0.2439726 -0 -0 -0.05166572 -0 -0)
(-0.243972 -0 -0 -0.05166559 -0 -0)
(0.2861201 2.122226e-16 0 0.06093945 0 0)
(0.2861193 0 0 0.06093928 0 0)
)
;

boundaryField
{
    leftandright
    {
        type            cyclic;
        value           nonuniform List<symmTensor> 
150
(
(0.0008760424 0 0 5.408577e-08 0 0)
(0.04553295 0 0 1.285485e-05 0 0)
(0.2960164 0 0 0.0001941992 0 0)
(1.049068 0 0 0.001214839 0 0)
(2.718756 0 0 0.004793029 0 0)
(5.787921 0 0 0.01416247 0 0)
(10.72397 4.741301e-34 0 0.03419201 0 0)
(17.87512 0 0 0.070952 0 0)
(27.38686 2.985334e-18 0 0.1307963 0 0)
(39.18084 0 0 0.2193598 0 0)
(52.95441 0 0 0.340623 0 0)
(70.61528 3.165621e-33 0 0.5136514 0 0)
(98.31342 0 0 0.7984421 0 0)
(129.3113 -2.148484e-32 0 1.162038 0 0)
(163.0197 0 0 1.61129 0 0)
(198.7686 6.930881e-17 0 2.152322 0 0)
(235.9395 0 0 2.791488 0 0)
(273.9465 -2.060602e-16 0 3.534938 0 0)
(312.2172 0 0 4.387967 0 0)
(350.1792 2.824955e-16 0 5.354244 0 0)
(387.2525 0 0 6.434974 0 0)
(422.8452 -7.285419e-16 0 7.62799 0 0)
(456.3563 -8.111421e-16 0 8.926926 0 0)
(487.1835 0 0 10.32048 0 0)
(514.7371 9.697948e-16 0 11.7919 0 0)
(538.4585 1.042104e-15 0 13.31878 0 0)
(557.8423 2.214289e-15 0 14.8733 0 0)
(572.4569 0 0 16.42271 0 0)
(581.9663 0 0 17.93046 0 0)
(586.1471 0 0 19.35749 0 0)
(584.9012 0 0 20.66397 0 0)
(578.2658 -2.530812e-15 0 21.81122 0 0)
(566.4153 7.538695e-15 0 22.76379 0 0)
(549.6614 0 0 23.49149 0 0)
(528.4483 -4.790235e-15 0 23.97151 0 0)
(503.3378 0 0 24.18968 0 0)
(474.9925 -4.366471e-15 0 24.14171 0 0)
(444.1539 0 0 23.83377 0 0)
(411.6162 0 0 23.28268 0 0)
(378.1895 0 0 22.51495 0 0)
(344.6623 0 0 21.56513 0 0)
(311.7602 0 0 20.47331 0 0)
(280.1073 0 0 19.28184 0 0)
(250.1986 9.202907e-15 0 18.0322 0 0)
(222.3838 4.069315e-15 0 16.76195 0 0)
(196.868 0 0 15.50265 0 0)
(173.7258 0 0 14.27879 0 0)
(152.9255 0 0 13.10765 0 0)
(134.3581 -4.773233e-15 0 12.00006 0 0)
(117.8645 -9.187582e-30 0 10.96155 0 0)
(103.2594 0 0 9.993573 0 0)
(90.34956 0 0 9.094808 0 0)
(78.94586 0 0 8.262115 0 0)
(68.87108 0 0 7.491312 0 0)
(59.96396 0 0 6.777738 0 0)
(52.08085 6.031463e-31 0 6.11663 0 0)
(45.09571 0 0 5.503371 0 0)
(38.89928 0 0 4.933634 0 0)
(33.39786 8.684359e-31 0 4.403493 0 0)
(28.51181 0 0 3.909476 0 0)
(24.17393 0 0 3.448595 0 0)
(20.32794 0 0 3.01838 0 0)
(16.92691 4.143939e-15 0 2.616898 0 0)
(13.93168 1.689398e-15 0 2.24277 0 0)
(11.30913 0 0 1.89516 0 0)
(9.031091 0 0 1.573865 0 0)
(7.072391 1.659493e-15 0 1.279224 0 0)
(5.401162 0 0 1.010512 0 0)
(3.999957 0 0 0.771079 0 0)
(2.821672 0 0 0.5584357 0 0)
(1.917213 0 0 0.3881685 0 0)
(1.046507 0 0 0.2159641 0 0)
(0.8795023 0 0 0.1842657 0 0)
(-0.2439723 -0 -0 -0.05166566 -0 -0)
(0.2861197 1.061111e-16 0 0.06093936 0 0)
(0.0008760424 0 0 5.408577e-08 0 0)
(0.04553295 0 0 1.285485e-05 0 0)
(0.2960164 0 0 0.0001941992 0 0)
(1.049068 0 0 0.001214839 0 0)
(2.718756 0 0 0.004793029 0 0)
(5.787921 0 0 0.01416247 0 0)
(10.72397 5.268113e-34 0 0.03419201 0 0)
(17.87512 0 0 0.070952 0 0)
(27.38686 2.985334e-18 0 0.1307963 0 0)
(39.18084 0 0 0.2193598 0 0)
(52.95441 0 0 0.340623 0 0)
(70.61528 3.165621e-33 0 0.5136514 0 0)
(98.31342 0 0 0.7984421 0 0)
(129.3113 -2.148484e-32 0 1.162038 0 0)
(163.0197 0 0 1.61129 0 0)
(198.7686 6.930881e-17 0 2.152322 0 0)
(235.9395 0 0 2.791488 0 0)
(273.9465 -2.060602e-16 0 3.534938 0 0)
(312.2172 0 0 4.387967 0 0)
(350.1792 2.824955e-16 0 5.354244 0 0)
(387.2525 0 0 6.434974 0 0)
(422.8452 -7.285419e-16 0 7.62799 0 0)
(456.3563 -8.111421e-16 0 8.926926 0 0)
(487.1835 0 0 10.32048 0 0)
(514.7371 9.697948e-16 0 11.7919 0 0)
(538.4585 1.042104e-15 0 13.31878 0 0)
(557.8423 2.214289e-15 0 14.8733 0 0)
(572.4569 0 0 16.42271 0 0)
(581.9663 0 0 17.93046 0 0)
(586.1471 0 0 19.35749 0 0)
(584.9012 0 0 20.66397 0 0)
(578.2658 -2.530812e-15 0 21.81122 0 0)
(566.4153 7.538695e-15 0 22.76379 0 0)
(549.6614 0 0 23.49149 0 0)
(528.4483 -4.790235e-15 0 23.97151 0 0)
(503.3378 0 0 24.18968 0 0)
(474.9925 -4.366471e-15 0 24.14171 0 0)
(444.1539 0 0 23.83377 0 0)
(411.6162 0 0 23.28268 0 0)
(378.1895 0 0 22.51495 0 0)
(344.6623 0 0 21.56513 0 0)
(311.7602 0 0 20.47331 0 0)
(280.1073 0 0 19.28184 0 0)
(250.1986 9.202907e-15 0 18.0322 0 0)
(222.3838 4.069315e-15 0 16.76195 0 0)
(196.868 0 0 15.50265 0 0)
(173.7258 0 0 14.27879 0 0)
(152.9255 0 0 13.10765 0 0)
(134.3581 -4.773233e-15 0 12.00006 0 0)
(117.8645 -9.187582e-30 0 10.96155 0 0)
(103.2594 0 0 9.993573 0 0)
(90.34956 0 0 9.094808 0 0)
(78.94586 0 0 8.262115 0 0)
(68.87108 0 0 7.491312 0 0)
(59.96396 0 0 6.777738 0 0)
(52.08085 6.031463e-31 0 6.11663 0 0)
(45.09571 0 0 5.503371 0 0)
(38.89928 0 0 4.933634 0 0)
(33.39786 8.684359e-31 0 4.403493 0 0)
(28.51181 0 0 3.909476 0 0)
(24.17393 0 0 3.448595 0 0)
(20.32794 0 0 3.01838 0 0)
(16.92691 4.143939e-15 0 2.616898 0 0)
(13.93168 1.689398e-15 0 2.24277 0 0)
(11.30913 0 0 1.89516 0 0)
(9.031091 0 0 1.573865 0 0)
(7.072391 1.659493e-15 0 1.279224 0 0)
(5.401162 0 0 1.010512 0 0)
(3.999957 0 0 0.771079 0 0)
(2.821672 0 0 0.5584357 0 0)
(1.917213 0 0 0.3881685 0 0)
(1.046507 0 0 0.2159641 0 0)
(0.8795023 0 0 0.1842657 0 0)
(-0.2439723 -0 -0 -0.05166566 -0 -0)
(0.2861197 1.061111e-16 0 0.06093936 0 0)
)
;
    }
    wall
    {
        type            calculated;
        value           nonuniform List<symmTensor> 2((2.571389e-07 0 0 1.671403e-07 0 0) (2.571748e-07 0 0 1.671636e-07 0 0));
    }
    frontAndBack
    {
        type            empty;
    }
    middle
    {
        type            symmetryPlane;
        value           nonuniform List<symmTensor> 2((0.2861201 0 0 0.06093945 0 0) (0.2861193 0 0 0.06093928 0 0));
    }
}


// ************************************************************************* //
