/*--------------------------------*- C++ -*----------------------------------*\
| =========                 |                                                 |
| \\      /  F ield         | foam-extend: Open Source CFD                    |
|  \\    /   O peration     | Version:     4.0                                |
|   \\  /    A nd           | Web:         http://www.foam-extend.org         |
|    \\/     M anipulation  |                                                 |
\*---------------------------------------------------------------------------*/
FoamFile
{
    version     2.0;
    format      ascii;
    class       volSymmTensorField;
    location    "100";
    object      NLTPlus;
}
// * * * * * * * * * * * * * * * * * * * * * * * * * * * * * * * * * * * * * //

dimensions      [0 2 -2 0 0 0 0];

internalField   nonuniform List<symmTensor> 
150
(
(2.919932e-06 0 0 1.802729e-10 0 0)
(2.920351e-06 0 0 1.802988e-10 0 0)
(0.0001517753 0 0 4.284917e-08 0 0)
(0.0001517777 0 0 4.284984e-08 0 0)
(0.0009867134 0 0 6.473256e-07 0 0)
(0.0009867291 0 0 6.47336e-07 0 0)
(0.003496874 0 0 4.049441e-06 0 0)
(0.003496912 0 0 4.049485e-06 0 0)
(0.009062492 0 0 1.597671e-05 0 0)
(0.009062548 0 0 1.597681e-05 0 0)
(0.01929304 0 0 4.720817e-05 0 0)
(0.0192931 0 0 4.720832e-05 0 0)
(0.03574653 -2.874083e-21 0 0.0001139733 0 0)
(0.03574658 2.874087e-21 0 0.0001139734 0 0)
(0.05958372 0 0 0.0002365066 0 0)
(0.05958375 0 0 0.0002365067 0 0)
(0.09128952 0 0 0.0004359876 0 0)
(0.09128957 1.990224e-20 0 0.0004359879 0 0)
(0.1306028 0 0 0.0007311993 0 0)
(0.1306028 0 0 0.0007311996 0 0)
(0.1765147 0 0 0.00113541 0 0)
(0.1765147 0 0 0.00113541 0 0)
(0.2353842 1.346034e-19 0 0.001712171 0 0)
(0.2353843 -1.346035e-19 0 0.001712172 0 0)
(0.3277112 0 0 0.002661472 0 0)
(0.3277116 0 0 0.002661475 0 0)
(0.4310374 -2.75619e-19 0 0.00387346 0 0)
(0.4310376 2.756192e-19 0 0.003873462 0 0)
(0.5433989 0 0 0.005370966 0 0)
(0.5433994 0 0 0.005370971 0 0)
(0.6625615 4.620584e-19 0 0.007174402 0 0)
(0.6625623 0 0 0.007174411 0 0)
(0.7864643 0 0 0.009304951 0 0)
(0.7864655 0 0 0.009304967 0 0)
(0.9131545 -1.373734e-18 0 0.01178312 0 0)
(0.9131558 0 0 0.01178314 0 0)
(1.040723 0 0 0.01462655 0 0)
(1.040725 0 0 0.01462657 0 0)
(1.167263 3.766604e-18 0 0.01784747 0 0)
(1.167265 -1.883305e-18 0 0.01784749 0 0)
(1.290841 0 0 0.0214499 0 0)
(1.290843 0 0 0.02144993 0 0)
(1.409483 -4.856943e-18 0 0.02542662 0 0)
(1.409485 0 0 0.02542665 0 0)
(1.521187 -5.407611e-18 0 0.0297564 0 0)
(1.521188 0 0 0.02975644 0 0)
(1.623944 0 0 0.03440159 0 0)
(1.623946 0 0 0.03440162 0 0)
(1.71579 6.465295e-18 0 0.03930631 0 0)
(1.715791 0 0 0.03930635 0 0)
(1.794861 6.947358e-18 0 0.04439592 0 0)
(1.794862 0 0 0.04439596 0 0)
(1.859474 1.476192e-17 0 0.04957763 0 0)
(1.859475 0 0 0.04957768 0 0)
(1.908189 0 0 0.05474235 0 0)
(1.908191 0 0 0.0547424 0 0)
(1.939887 0 0 0.05976818 0 0)
(1.939888 0 0 0.05976821 0 0)
(1.953823 0 0 0.06452493 0 0)
(1.953824 0 0 0.06452499 0 0)
(1.94967 -1.680164e-17 0 0.06887986 0 0)
(1.949672 1.680165e-17 0 0.06887992 0 0)
(1.927551 -1.687207e-17 0 0.07270403 0 0)
(1.927554 0 0 0.07270412 0 0)
(1.88805 5.025795e-17 0 0.07587926 0 0)
(1.888052 0 0 0.07587933 0 0)
(1.832204 0 0 0.07830494 0 0)
(1.832205 0 0 0.07830501 0 0)
(1.761494 -3.193489e-17 0 0.07990501 0 0)
(1.761495 0 0 0.07990503 0 0)
(1.677792 0 0 0.08063226 0 0)
(1.677793 0 0 0.08063228 0 0)
(1.583308 -5.821959e-17 0 0.08047233 0 0)
(1.583309 2.910982e-17 0 0.0804724 0 0)
(1.480512 0 0 0.07944586 0 0)
(1.480514 0 0 0.07944593 0 0)
(1.372054 0 0 0.07760894 0 0)
(1.372054 0 0 0.07760895 0 0)
(1.260632 0 0 0.07504981 0 0)
(1.260632 0 0 0.07504983 0 0)
(1.148874 0 0 0.07188373 0 0)
(1.148875 0 0 0.0718838 0 0)
(1.039201 0 0 0.06824435 0 0)
(1.039201 0 0 0.06824435 0 0)
(0.9336909 0 0 0.0642728 0 0)
(0.9336913 0 0 0.06427282 0 0)
(0.8339953 6.13527e-17 0 0.06010732 0 0)
(0.8339956 0 0 0.06010735 0 0)
(0.7412793 2.712876e-17 0 0.05587315 0 0)
(0.7412796 0 0 0.05587317 0 0)
(0.6562265 0 0 0.0516755 0 0)
(0.6562268 0 0 0.05167552 0 0)
(0.5790858 0 0 0.04759595 0 0)
(0.579086 0 0 0.04759597 0 0)
(0.5097516 0 0 0.04369215 0 0)
(0.5097519 0 0 0.04369217 0 0)
(0.4478603 -3.182155e-17 0 0.04000021 0 0)
(0.4478604 0 0 0.04000022 0 0)
(0.3928816 -2.765414e-17 0 0.03653849 0 0)
(0.3928816 2.765414e-17 0 0.03653849 0 0)
(0.344198 0 0 0.0333119 0 0)
(0.3441981 0 0 0.03331192 0 0)
(0.3011652 0 0 0.03031602 0 0)
(0.3011652 0 0 0.03031603 0 0)
(0.2631528 0 0 0.02754038 0 0)
(0.2631529 0 0 0.02754039 0 0)
(0.2295703 0 0 0.02497104 0 0)
(0.2295702 0 0 0.02497104 0 0)
(0.1998799 0 0 0.02259246 0 0)
(0.1998798 0 0 0.02259246 0 0)
(0.1736028 2.288409e-17 0 0.02038876 0 0)
(0.1736028 -2.28841e-17 0 0.02038877 0 0)
(0.150319 0 0 0.01834457 0 0)
(0.150319 0 0 0.01834457 0 0)
(0.1296642 0 0 0.01644544 0 0)
(0.1296643 0 0 0.01644545 0 0)
(0.1113262 1.418635e-17 0 0.01467831 0 0)
(0.1113262 -1.418634e-17 0 0.01467831 0 0)
(0.09503936 0 0 0.01303159 0 0)
(0.09503935 0 0 0.01303158 0 0)
(0.08057976 0 0 0.01149532 0 0)
(0.08057975 0 0 0.01149532 0 0)
(0.06775979 0 0 0.01006127 0 0)
(0.06775978 0 0 0.01006127 0 0)
(0.05642303 2.762626e-17 0 0.008722993 0 0)
(0.05642301 0 0 0.008722991 0 0)
(0.04643895 0 0 0.007475901 0 0)
(0.04643895 1.126265e-17 0 0.007475901 0 0)
(0.03769709 0 0 0.0063172 0 0)
(0.0376971 0 0 0.006317202 0 0)
(0.03010363 0 0 0.005246218 0 0)
(0.03010364 0 0 0.005246219 0 0)
(0.02357463 0 0 0.00426408 0 0)
(0.02357464 1.106329e-17 0 0.004264082 0 0)
(0.01800387 0 0 0.003368371 0 0)
(0.01800388 0 0 0.003368373 0 0)
(0.01333319 0 0 0.002570263 0 0)
(0.01333319 0 0 0.002570264 0 0)
(0.009405576 0 0 0.001861453 0 0)
(0.009405572 0 0 0.001861452 0 0)
(0.006390715 0 0 0.001293896 0 0)
(0.006390702 0 0 0.001293894 0 0)
(0.003488365 0 0 0.0007198818 0 0)
(0.00348835 0 0 0.0007198787 0 0)
(0.002931672 0 0 0.0006142186 0 0)
(0.002931676 0 0 0.0006142194 0 0)
(-0.0008132419 -0 -0 -0.0001722191 -0 -0)
(-0.0008132399 -0 -0 -0.0001722186 -0 -0)
(0.0009537337 7.074086e-19 0 0.0002031315 0 0)
(0.0009537311 0 0 0.0002031309 0 0)
)
;

boundaryField
{
    leftandright
    {
        type            cyclic;
        value           nonuniform List<symmTensor> 
150
(
(2.920141e-06 0 0 1.802859e-10 0 0)
(0.0001517765 0 0 4.284951e-08 0 0)
(0.0009867212 0 0 6.473308e-07 0 0)
(0.003496893 0 0 4.049463e-06 0 0)
(0.00906252 0 0 1.597676e-05 0 0)
(0.01929307 0 0 4.720825e-05 0 0)
(0.03574656 1.580434e-36 0 0.0001139734 0 0)
(0.05958373 0 0 0.0002365067 0 0)
(0.09128954 9.951115e-21 0 0.0004359878 0 0)
(0.1306028 0 0 0.0007311995 0 0)
(0.1765147 0 0 0.00113541 0 0)
(0.2353843 1.055207e-35 0 0.001712171 0 0)
(0.3277114 0 0 0.002661474 0 0)
(0.4310375 -7.161614e-35 0 0.003873461 0 0)
(0.5433991 0 0 0.005370968 0 0)
(0.6625619 2.310294e-19 0 0.007174406 0 0)
(0.7864649 0 0 0.009304959 0 0)
(0.9131551 -6.868674e-19 0 0.01178313 0 0)
(1.040724 0 0 0.01462656 0 0)
(1.167264 9.416517e-19 0 0.01784748 0 0)
(1.290842 0 0 0.02144991 0 0)
(1.409484 -2.428473e-18 0 0.02542663 0 0)
(1.521188 -2.703807e-18 0 0.02975642 0 0)
(1.623945 0 0 0.0344016 0 0)
(1.71579 3.232649e-18 0 0.03930633 0 0)
(1.794862 3.473681e-18 0 0.04439594 0 0)
(1.859474 7.380964e-18 0 0.04957765 0 0)
(1.90819 0 0 0.05474237 0 0)
(1.939888 0 0 0.05976819 0 0)
(1.953824 0 0 0.06452496 0 0)
(1.949671 0 0 0.06887989 0 0)
(1.927553 -8.436039e-18 0 0.07270407 0 0)
(1.888051 2.512898e-17 0 0.07587929 0 0)
(1.832205 0 0 0.07830498 0 0)
(1.761494 -1.596745e-17 0 0.07990502 0 0)
(1.677793 0 0 0.08063227 0 0)
(1.583308 -1.45549e-17 0 0.08047237 0 0)
(1.480513 0 0 0.0794459 0 0)
(1.372054 0 0 0.07760895 0 0)
(1.260632 0 0 0.07504982 0 0)
(1.148874 0 0 0.07188376 0 0)
(1.039201 0 0 0.06824435 0 0)
(0.9336911 0 0 0.06427281 0 0)
(0.8339954 3.067636e-17 0 0.06010734 0 0)
(0.7412795 1.356438e-17 0 0.05587316 0 0)
(0.6562267 0 0 0.05167551 0 0)
(0.5790859 0 0 0.04759596 0 0)
(0.5097517 0 0 0.04369216 0 0)
(0.4478603 -1.591078e-17 0 0.04000022 0 0)
(0.3928816 -3.062527e-32 0 0.03653849 0 0)
(0.3441981 0 0 0.03331191 0 0)
(0.3011652 0 0 0.03031603 0 0)
(0.2631529 0 0 0.02754038 0 0)
(0.2295703 0 0 0.02497104 0 0)
(0.1998799 0 0 0.02259246 0 0)
(0.1736028 2.010488e-33 0 0.02038877 0 0)
(0.150319 0 0 0.01834457 0 0)
(0.1296643 0 0 0.01644545 0 0)
(0.1113262 2.894786e-33 0 0.01467831 0 0)
(0.09503935 0 0 0.01303159 0 0)
(0.08057976 0 0 0.01149532 0 0)
(0.06775979 0 0 0.01006127 0 0)
(0.05642302 1.381313e-17 0 0.008722992 0 0)
(0.04643895 5.631326e-18 0 0.007475901 0 0)
(0.0376971 0 0 0.006317201 0 0)
(0.03010364 0 0 0.005246218 0 0)
(0.02357464 5.531643e-18 0 0.004264081 0 0)
(0.01800387 0 0 0.003368372 0 0)
(0.01333319 0 0 0.002570263 0 0)
(0.009405574 0 0 0.001861452 0 0)
(0.006390709 0 0 0.001293895 0 0)
(0.003488358 0 0 0.0007198802 0 0)
(0.002931674 0 0 0.000614219 0 0)
(-0.0008132409 -0 -0 -0.0001722189 -0 -0)
(0.0009537324 3.537038e-19 0 0.0002031312 0 0)
(2.920141e-06 0 0 1.802859e-10 0 0)
(0.0001517765 0 0 4.284951e-08 0 0)
(0.0009867212 0 0 6.473308e-07 0 0)
(0.003496893 0 0 4.049463e-06 0 0)
(0.00906252 0 0 1.597676e-05 0 0)
(0.01929307 0 0 4.720825e-05 0 0)
(0.03574656 1.756038e-36 0 0.0001139734 0 0)
(0.05958373 0 0 0.0002365067 0 0)
(0.09128954 9.951115e-21 0 0.0004359878 0 0)
(0.1306028 0 0 0.0007311995 0 0)
(0.1765147 0 0 0.00113541 0 0)
(0.2353843 1.055207e-35 0 0.001712171 0 0)
(0.3277114 0 0 0.002661474 0 0)
(0.4310375 -7.161614e-35 0 0.003873461 0 0)
(0.5433991 0 0 0.005370968 0 0)
(0.6625619 2.310294e-19 0 0.007174406 0 0)
(0.7864649 0 0 0.009304959 0 0)
(0.9131551 -6.868674e-19 0 0.01178313 0 0)
(1.040724 0 0 0.01462656 0 0)
(1.167264 9.416517e-19 0 0.01784748 0 0)
(1.290842 0 0 0.02144991 0 0)
(1.409484 -2.428473e-18 0 0.02542663 0 0)
(1.521188 -2.703807e-18 0 0.02975642 0 0)
(1.623945 0 0 0.0344016 0 0)
(1.71579 3.232649e-18 0 0.03930633 0 0)
(1.794862 3.473681e-18 0 0.04439594 0 0)
(1.859474 7.380964e-18 0 0.04957765 0 0)
(1.90819 0 0 0.05474237 0 0)
(1.939888 0 0 0.05976819 0 0)
(1.953824 0 0 0.06452496 0 0)
(1.949671 0 0 0.06887989 0 0)
(1.927553 -8.436039e-18 0 0.07270407 0 0)
(1.888051 2.512898e-17 0 0.07587929 0 0)
(1.832205 0 0 0.07830498 0 0)
(1.761494 -1.596745e-17 0 0.07990502 0 0)
(1.677793 0 0 0.08063227 0 0)
(1.583308 -1.45549e-17 0 0.08047237 0 0)
(1.480513 0 0 0.0794459 0 0)
(1.372054 0 0 0.07760895 0 0)
(1.260632 0 0 0.07504982 0 0)
(1.148874 0 0 0.07188376 0 0)
(1.039201 0 0 0.06824435 0 0)
(0.9336911 0 0 0.06427281 0 0)
(0.8339954 3.067636e-17 0 0.06010734 0 0)
(0.7412795 1.356438e-17 0 0.05587316 0 0)
(0.6562267 0 0 0.05167551 0 0)
(0.5790859 0 0 0.04759596 0 0)
(0.5097517 0 0 0.04369216 0 0)
(0.4478603 -1.591078e-17 0 0.04000022 0 0)
(0.3928816 -3.062527e-32 0 0.03653849 0 0)
(0.3441981 0 0 0.03331191 0 0)
(0.3011652 0 0 0.03031603 0 0)
(0.2631529 0 0 0.02754038 0 0)
(0.2295703 0 0 0.02497104 0 0)
(0.1998799 0 0 0.02259246 0 0)
(0.1736028 2.010488e-33 0 0.02038877 0 0)
(0.150319 0 0 0.01834457 0 0)
(0.1296643 0 0 0.01644545 0 0)
(0.1113262 2.894786e-33 0 0.01467831 0 0)
(0.09503935 0 0 0.01303159 0 0)
(0.08057976 0 0 0.01149532 0 0)
(0.06775979 0 0 0.01006127 0 0)
(0.05642302 1.381313e-17 0 0.008722992 0 0)
(0.04643895 5.631326e-18 0 0.007475901 0 0)
(0.0376971 0 0 0.006317201 0 0)
(0.03010364 0 0 0.005246218 0 0)
(0.02357464 5.531643e-18 0 0.004264081 0 0)
(0.01800387 0 0 0.003368372 0 0)
(0.01333319 0 0 0.002570263 0 0)
(0.009405574 0 0 0.001861452 0 0)
(0.006390709 0 0 0.001293895 0 0)
(0.003488358 0 0 0.0007198802 0 0)
(0.002931674 0 0 0.000614219 0 0)
(-0.0008132409 -0 -0 -0.0001722189 -0 -0)
(0.0009537324 3.537038e-19 0 0.0002031312 0 0)
)
;
    }
    wall
    {
        type            calculated;
        value           nonuniform List<symmTensor> 2((8.571296e-10 0 0 5.571342e-10 0 0) (8.572495e-10 0 0 5.572122e-10 0 0));
    }
    frontAndBack
    {
        type            empty;
    }
    middle
    {
        type            symmetryPlane;
        value           nonuniform List<symmTensor> 2((0.0009537337 0 0 0.0002031315 0 0) (0.0009537311 0 0 0.0002031309 0 0));
    }
}


// ************************************************************************* //
