/*--------------------------------*- C++ -*----------------------------------*\
| =========                 |                                                 |
| \\      /  F ield         | foam-extend: Open Source CFD                    |
|  \\    /   O peration     | Version:     4.0                                |
|   \\  /    A nd           | Web:         http://www.foam-extend.org         |
|    \\/     M anipulation  |                                                 |
\*---------------------------------------------------------------------------*/
FoamFile
{
    version     2.0;
    format      ascii;
    class       volScalarField;
    location    "100";
    object      nut;
}
// * * * * * * * * * * * * * * * * * * * * * * * * * * * * * * * * * * * * * //

dimensions      [0 2 -1 0 0 0 0];

internalField   nonuniform List<scalar> 
150
(
3.536423e-09
3.536424e-09
1.840887e-07
1.840888e-07
1.199174e-06
1.199174e-06
4.261445e-06
4.261446e-06
1.108838e-05
1.108838e-05
2.374623e-05
2.374623e-05
4.436865e-05
4.436866e-05
7.478928e-05
7.478929e-05
0.0001162032
0.0001162032
0.0001690021
0.0001690021
0.0002328573
0.0002328573
0.0003187188
0.0003187188
0.0004601762
0.0004601763
0.0006326724
0.0006326725
0.0008376149
0.000837615
0.001076842
0.001076843
0.001352633
0.001352633
0.001667635
0.001667635
0.002024784
0.002024785
0.002427218
0.002427219
0.002878202
0.002878203
0.003381055
0.003381055
0.003939076
0.003939077
0.004555484
0.004555485
0.005233343
0.005233344
0.005975503
0.005975504
0.006784548
0.006784549
0.007662747
0.007662748
0.00861202
0.008612021
0.009633919
0.00963392
0.01072962
0.01072962
0.01189995
0.01189995
0.0131454
0.0131454
0.0144662
0.0144662
0.01586241
0.01586241
0.01733386
0.01733386
0.01888013
0.01888013
0.02050056
0.02050056
0.02219425
0.02219425
0.02396001
0.02396001
0.02579641
0.02579641
0.02770177
0.02770177
0.02967412
0.02967413
0.0317113
0.0317113
0.03381086
0.03381086
0.03597021
0.03597021
0.03818658
0.03818658
0.04045714
0.04045714
0.04277907
0.04277907
0.04514974
0.04514974
0.04756686
0.04756686
0.05002869
0.05002869
0.05253436
0.05253436
0.05508417
0.05508417
0.05767997
0.05767997
0.06032561
0.06032561
0.06302735
0.06302735
0.06579429
0.06579429
0.06863871
0.06863871
0.07157619
0.07157619
0.0746253
0.0746253
0.07780665
0.07780665
0.0811408
0.0811408
0.08464448
0.08464448
0.08832428
0.08832427
0.0921667
0.0921667
0.09612315
0.09612315
0.100088
0.1000879
0.1040264
0.1040264
0.1079567
0.1079567
0.1118372
0.1118372
0.1155432
0.1155432
0.1188489
0.1188489
0.1214292
0.1214292
0.1229003
0.1229003
)
;

boundaryField
{
    leftandright
    {
        type            cyclic;
        value           nonuniform List<scalar> 
150
(
3.536423e-09
1.840887e-07
1.199174e-06
4.261446e-06
1.108838e-05
2.374623e-05
4.436866e-05
7.478928e-05
0.0001162032
0.0001690021
0.0002328573
0.0003187188
0.0004601762
0.0006326724
0.0008376149
0.001076843
0.001352633
0.001667635
0.002024784
0.002427219
0.002878203
0.003381055
0.003939077
0.004555485
0.005233343
0.005975504
0.006784549
0.007662747
0.008612021
0.00963392
0.01072962
0.01189995
0.0131454
0.0144662
0.01586241
0.01733386
0.01888013
0.02050056
0.02219425
0.02396001
0.02579641
0.02770177
0.02967413
0.0317113
0.03381086
0.03597021
0.03818658
0.04045714
0.04277907
0.04514974
0.04756686
0.05002869
0.05253436
0.05508417
0.05767997
0.06032561
0.06302735
0.06579429
0.06863871
0.07157619
0.0746253
0.07780665
0.0811408
0.08464448
0.08832428
0.0921667
0.09612315
0.1000879
0.1040264
0.1079567
0.1118372
0.1155432
0.1188489
0.1214292
0.1229003
3.536423e-09
1.840887e-07
1.199174e-06
4.261446e-06
1.108838e-05
2.374623e-05
4.436866e-05
7.478928e-05
0.0001162032
0.0001690021
0.0002328573
0.0003187188
0.0004601762
0.0006326724
0.0008376149
0.001076843
0.001352633
0.001667635
0.002024784
0.002427219
0.002878203
0.003381055
0.003939077
0.004555485
0.005233343
0.005975504
0.006784549
0.007662747
0.008612021
0.00963392
0.01072962
0.01189995
0.0131454
0.0144662
0.01586241
0.01733386
0.01888013
0.02050056
0.02219425
0.02396001
0.02579641
0.02770177
0.02967413
0.0317113
0.03381086
0.03597021
0.03818658
0.04045714
0.04277907
0.04514974
0.04756686
0.05002869
0.05253436
0.05508417
0.05767997
0.06032561
0.06302735
0.06579429
0.06863871
0.07157619
0.0746253
0.07780665
0.0811408
0.08464448
0.08832428
0.0921667
0.09612315
0.1000879
0.1040264
0.1079567
0.1118372
0.1155432
0.1188489
0.1214292
0.1229003
)
;
    }
    wall
    {
        type            nutLowReWallFunction;
        Cmu             0.09;
        kappa           0.41;
        E               9.8;
        value           nonuniform List<scalar> 2(1.037389e-12 1.037389e-12);
    }
    frontAndBack
    {
        type            empty;
    }
    middle
    {
        type            symmetryPlane;
        value           nonuniform List<scalar> 2(0.1229003 0.1229003);
    }
}


// ************************************************************************* //
