/*--------------------------------*- C++ -*----------------------------------*\
| =========                 |                                                 |
| \\      /  F ield         | foam-extend: Open Source CFD                    |
|  \\    /   O peration     | Version:     4.0                                |
|   \\  /    A nd           | Web:         http://www.foam-extend.org         |
|    \\/     M anipulation  |                                                 |
\*---------------------------------------------------------------------------*/
FoamFile
{
    version     2.0;
    format      ascii;
    class       volScalarField;
    location    "100";
    object      p;
}
// * * * * * * * * * * * * * * * * * * * * * * * * * * * * * * * * * * * * * //

dimensions      [0 2 -2 0 0 0 0];

internalField   nonuniform List<scalar> 
150
(
-6.191224e-09
-0.04999991
-1.927529e-05
-0.05001925
-0.0001044826
-0.05010449
-0.000346122
-0.05034613
-0.0008594115
-0.05085942
-0.001776719
-0.05177672
-0.003238727
-0.05323873
-0.005385732
-0.05538574
-0.008350844
-0.05835085
-0.01225616
-0.06225616
-0.01720773
-0.06720774
-0.02327871
-0.07327872
-0.03049452
-0.08049453
-0.03884764
-0.08884765
-0.04831897
-0.09831898
-0.05887757
-0.1088776
-0.07047507
-0.1204751
-0.08304687
-0.1330469
-0.0965153
-0.1465153
-0.1107929
-0.1607929
-0.125786
-0.175786
-0.1413974
-0.1913974
-0.1575297
-0.2075297
-0.1740871
-0.2240871
-0.1909771
-0.2409771
-0.2081117
-0.2581118
-0.2254082
-0.2754082
-0.2427889
-0.2927889
-0.2601816
-0.3101816
-0.2775188
-0.3275188
-0.2947378
-0.3447378
-0.3117801
-0.3617801
-0.3285912
-0.3785912
-0.3451207
-0.3951207
-0.361322
-0.411322
-0.37715
-0.42715
-0.3925594
-0.4425594
-0.4075032
-0.4575032
-0.4219325
-0.4719325
-0.4357956
-0.4857956
-0.4490394
-0.4990394
-0.4616091
-0.5116091
-0.4734503
-0.5234503
-0.4845098
-0.5345098
-0.494737
-0.544737
-0.5040848
-0.5540848
-0.5125109
-0.5625109
-0.519978
-0.569978
-0.5264545
-0.5764544
-0.5319141
-0.5819141
-0.5363371
-0.5863371
-0.53971
-0.58971
-0.5420264
-0.5920264
-0.5432876
-0.5932876
-0.5435031
-0.5935031
-0.5426916
-0.5926916
-0.5408814
-0.5908814
-0.5381104
-0.5881104
-0.5344257
-0.5844257
-0.5298823
-0.5798823
-0.5245398
-0.5745398
-0.5184573
-0.5684573
-0.511686
-0.561686
-0.5042579
-0.5542579
-0.4961697
-0.5461697
-0.4873643
-0.5373643
-0.4776683
-0.5276683
-0.4668625
-0.5168625
-0.4553519
-0.5053519
-0.4432118
-0.4932118
-0.4334418
-0.4834418
-0.4183458
-0.4683458
-0.4275771
-0.4775771
-0.3568865
-0.4068865
-0.5490525
-0.5990525
)
;

boundaryField
{
    leftandright
    {
        type            fan;
        patchType       cyclic;
        f               1(-0.1);
        value           nonuniform List<scalar> 
150
(
0.02500004
0.02498074
0.02489551
0.02465387
0.02414059
0.02322328
0.02176127
0.01961426
0.01664915
0.01274384
0.007792262
0.001721288
-0.005494524
-0.01384764
-0.02331897
-0.03387758
-0.04547507
-0.05804688
-0.0715153
-0.08579293
-0.100786
-0.1163974
-0.1325297
-0.1490871
-0.1659771
-0.1831117
-0.2004082
-0.2177889
-0.2351816
-0.2525188
-0.2697378
-0.2867801
-0.3035912
-0.3201207
-0.336322
-0.35215
-0.3675594
-0.3825032
-0.3969325
-0.4107956
-0.4240394
-0.4366091
-0.4484503
-0.4595098
-0.469737
-0.4790848
-0.4875109
-0.494978
-0.5014545
-0.5069141
-0.5113371
-0.51471
-0.5170264
-0.5182876
-0.5185031
-0.5176916
-0.5158814
-0.5131104
-0.5094257
-0.5048823
-0.4995398
-0.4934573
-0.486686
-0.4792579
-0.4711697
-0.4623643
-0.4526683
-0.4418625
-0.4303519
-0.4182118
-0.4084418
-0.3933458
-0.4025771
-0.3318865
-0.5240525
-0.07499996
-0.07501926
-0.07510449
-0.07534613
-0.07585941
-0.07677672
-0.07823873
-0.08038574
-0.08335085
-0.08725616
-0.09220774
-0.09827871
-0.1054945
-0.1138476
-0.123319
-0.1338776
-0.1454751
-0.1580469
-0.1715153
-0.1857929
-0.200786
-0.2163974
-0.2325297
-0.2490871
-0.2659771
-0.2831117
-0.3004082
-0.3177889
-0.3351816
-0.3525188
-0.3697378
-0.3867801
-0.4035912
-0.4201207
-0.436322
-0.45215
-0.4675594
-0.4825032
-0.4969325
-0.5107956
-0.5240394
-0.5366091
-0.5484503
-0.5595098
-0.569737
-0.5790848
-0.5875109
-0.594978
-0.6014545
-0.6069141
-0.6113371
-0.61471
-0.6170264
-0.6182876
-0.6185031
-0.6176916
-0.6158814
-0.6131104
-0.6094257
-0.6048823
-0.5995398
-0.5934573
-0.586686
-0.5792579
-0.5711697
-0.5623643
-0.5526683
-0.5418625
-0.5303519
-0.5182118
-0.5084418
-0.4933458
-0.5025771
-0.4318865
-0.6240525
)
;
    }
    wall
    {
        type            zeroGradient;
    }
    frontAndBack
    {
        type            empty;
    }
    middle
    {
        type            symmetryPlane;
        value           nonuniform List<scalar> 2(-0.5490525 -0.5990525);
    }
}


// ************************************************************************* //
