/*--------------------------------*- C++ -*----------------------------------*\
| =========                 |                                                 |
| \\      /  F ield         | foam-extend: Open Source CFD                    |
|  \\    /   O peration     | Version:     4.0                                |
|   \\  /    A nd           | Web:         http://www.foam-extend.org         |
|    \\/     M anipulation  |                                                 |
\*---------------------------------------------------------------------------*/
FoamFile
{
    version     2.0;
    format      ascii;
    class       surfaceScalarField;
    location    "100";
    object      phi;
}
// * * * * * * * * * * * * * * * * * * * * * * * * * * * * * * * * * * * * * //

dimensions      [0 3 -1 0 0 0 0];

internalField   nonuniform List<scalar> 
223
(
2.391969e-05
5.388408e-12
-2.991182e-14
7.664164e-05
5.521166e-12
-1.387576e-14
0.000137368
5.595824e-12
3.917085e-14
0.0002070226
5.632978e-12
8.061979e-14
0.000286589
5.652796e-12
9.861281e-14
0.0003770939
5.653741e-12
1.003601e-13
0.0004795883
5.634384e-12
9.312567e-14
0.0005951324
5.59795e-12
8.000155e-14
0.000724791
5.548847e-12
6.172629e-14
0.0008696427
5.499245e-12
4.733603e-14
0.001030803
5.472667e-12
5.946958e-14
0.001209236
5.479971e-12
1.101784e-13
0.001405048
5.506921e-12
1.891077e-13
0.001618057
5.533675e-12
2.832746e-13
0.001848527
5.544931e-12
3.842642e-13
0.002096709
5.526848e-12
4.828035e-13
0.002362864
5.467733e-12
5.713699e-13
0.002647278
5.358759e-12
6.477458e-13
0.002950285
5.197064e-12
7.135588e-13
0.003272283
4.987284e-12
7.724885e-13
0.003613749
4.739419e-12
8.305545e-13
0.003975258
4.467191e-12
8.949421e-13
0.004357492
4.18538e-12
9.733931e-13
0.004761249
3.903919e-12
1.076854e-12
0.005187453
3.636117e-12
1.208506e-12
0.005637158
3.404172e-12
1.35625e-12
0.006111551
3.216972e-12
1.513784e-12
0.006611953
3.069275e-12
1.681248e-12
0.007139821
2.955164e-12
1.852464e-12
0.007696747
2.862312e-12
2.022132e-12
0.008284457
2.78198e-12
2.177804e-12
0.008904813
2.716092e-12
2.295127e-12
0.009559809
2.654037e-12
2.36485e-12
0.01025157
2.57694e-12
2.392442e-12
0.01098237
2.466346e-12
2.39065e-12
0.01175459
2.31945e-12
2.365516e-12
0.01257076
2.169624e-12
2.297478e-12
0.01343356
2.014654e-12
2.212792e-12
0.01434579
1.828601e-12
2.169193e-12
0.01531041
1.662434e-12
2.150938e-12
0.01633053
1.56803e-12
2.139064e-12
0.01740942
1.520394e-12
2.182996e-12
0.01855049
1.49537e-12
2.31734e-12
0.01975736
1.512743e-12
2.515232e-12
0.0210338
1.588497e-12
2.735605e-12
0.02238378
1.69578e-12
2.965427e-12
0.02381146
1.814682e-12
3.176491e-12
0.02532121
1.963426e-12
3.303162e-12
0.02691762
2.109423e-12
3.340778e-12
0.02860546
2.212749e-12
3.31002e-12
0.03038976
2.287086e-12
3.200388e-12
0.03227574
2.312883e-12
3.056867e-12
0.03426882
2.318212e-12
2.893912e-12
0.03637465
2.35032e-12
2.714502e-12
0.03859906
2.37285e-12
2.600689e-12
0.04094803
2.389337e-12
2.577279e-12
0.0434277
2.461007e-12
2.583249e-12
0.04604433
2.58453e-12
2.588726e-12
0.04880423
2.670762e-12
2.619273e-12
0.05171376
2.678226e-12
2.635711e-12
0.05477925
2.608322e-12
2.56225e-12
0.05800694
2.436273e-12
2.385666e-12
0.061403
2.165202e-12
2.131285e-12
0.06497341
1.879403e-12
1.826377e-12
0.06872401
1.676707e-12
1.547567e-12
0.07266047
1.569583e-12
1.446162e-12
0.07678835
1.579156e-12
1.528335e-12
0.08111313
1.643218e-12
1.593697e-12
0.08564
1.46837e-12
1.351254e-12
0.09037341
8.177929e-13
5.655742e-13
0.09531685
-6.430452e-14
-1.603399e-13
0.1004728
5.072983e-13
-1.49961e-13
0.1058423
-1.77625e-13
2.090986e-14
0.1114247
-2.140116e-13
-1.851831e-13
0.117216
)
;

boundaryField
{
    leftandright
    {
        type            cyclic;
        value           nonuniform List<scalar> 
150
(
-2.391969e-05
-7.664164e-05
-0.000137368
-0.0002070226
-0.000286589
-0.0003770939
-0.0004795883
-0.0005951324
-0.000724791
-0.0008696427
-0.001030803
-0.001209236
-0.001405048
-0.001618057
-0.001848527
-0.002096709
-0.002362864
-0.002647278
-0.002950285
-0.003272283
-0.003613749
-0.003975258
-0.004357492
-0.004761249
-0.005187453
-0.005637158
-0.006111551
-0.006611953
-0.007139821
-0.007696747
-0.008284457
-0.008904813
-0.009559809
-0.01025157
-0.01098237
-0.01175459
-0.01257076
-0.01343356
-0.01434579
-0.01531041
-0.01633053
-0.01740942
-0.01855049
-0.01975736
-0.0210338
-0.02238378
-0.02381146
-0.02532121
-0.02691762
-0.02860546
-0.03038976
-0.03227574
-0.03426882
-0.03637465
-0.03859906
-0.04094803
-0.0434277
-0.04604433
-0.04880423
-0.05171376
-0.05477925
-0.05800694
-0.061403
-0.06497341
-0.06872401
-0.07266047
-0.07678835
-0.08111313
-0.08564
-0.09037341
-0.09531685
-0.1004728
-0.1058423
-0.1114247
-0.117216
2.391969e-05
7.664164e-05
0.000137368
0.0002070226
0.000286589
0.0003770939
0.0004795883
0.0005951324
0.000724791
0.0008696427
0.001030803
0.001209236
0.001405048
0.001618057
0.001848527
0.002096709
0.002362864
0.002647278
0.002950285
0.003272283
0.003613749
0.003975258
0.004357492
0.004761249
0.005187453
0.005637158
0.006111551
0.006611953
0.007139821
0.007696747
0.008284457
0.008904813
0.009559809
0.01025157
0.01098237
0.01175459
0.01257076
0.01343356
0.01434579
0.01531041
0.01633053
0.01740942
0.01855049
0.01975736
0.0210338
0.02238378
0.02381146
0.02532121
0.02691762
0.02860546
0.03038976
0.03227574
0.03426882
0.03637465
0.03859906
0.04094803
0.0434277
0.04604433
0.04880423
0.05171376
0.05477925
0.05800694
0.061403
0.06497341
0.06872401
0.07266047
0.07678835
0.08111313
0.08564
0.09037341
0.09531685
0.1004728
0.1058423
0.1114247
0.117216
)
;
    }
    wall
    {
        type            calculated;
        value           uniform 0;
    }
    frontAndBack
    {
        type            empty;
    }
    middle
    {
        type            symmetryPlane;
        value           uniform 0;
    }
}


// ************************************************************************* //
