/*--------------------------------*- C++ -*----------------------------------*\
| =========                 |                                                 |
| \\      /  F ield         | foam-extend: Open Source CFD                    |
|  \\    /   O peration     | Version:     4.0                                |
|   \\  /    A nd           | Web:         http://www.foam-extend.org         |
|    \\/     M anipulation  |                                                 |
\*---------------------------------------------------------------------------*/
FoamFile
{
    version     2.0;
    format      ascii;
    class       volScalarField;
    location    "100";
    object      QR;
}
// * * * * * * * * * * * * * * * * * * * * * * * * * * * * * * * * * * * * * //

dimensions      [0 0 -1 0 0 0 0];

internalField   nonuniform List<scalar> 
150
(
308.274
308.2709
307.8202
307.8193
307.2551
307.2556
306.4565
306.457
305.256
305.2565
303.4616
303.4621
300.8886
300.8889
297.399
297.3993
292.9358
292.936
287.5367
287.5369
281.0815
281.0816
272.6301
272.6301
261.5081
261.5081
248.5717
248.5717
234.7582
234.7582
220.4201
220.4201
205.8732
205.8732
191.3899
191.3898
177.1973
177.1973
163.4787
163.4787
150.3751
150.3751
137.9883
137.9883
126.3851
126.3851
115.6015
115.6015
105.6476
105.6476
96.51271
96.51271
88.16994
88.16994
80.58056
80.58056
73.69788
73.69788
67.4704
67.4704
61.84446
61.84446
56.76626
56.76626
52.18333
52.18333
48.04562
48.04562
44.30622
44.30622
40.92192
40.92192
37.85352
37.85352
35.06578
35.06578
32.52727
32.52727
30.21018
30.21018
28.08999
28.08999
26.14521
26.14521
24.35705
24.35705
22.70912
22.70912
21.1871
21.1871
19.77845
19.77845
18.47211
18.47211
17.25826
17.25826
16.12811
16.12811
15.07367
15.07367
14.08771
14.08771
13.16356
13.16356
12.29506
12.29506
11.47651
11.47651
10.70264
10.70264
9.968542
9.968542
9.269697
9.269697
8.601964
8.601964
7.961613
7.961613
7.345367
7.345367
6.750464
6.750464
6.174735
6.174735
5.616689
5.616689
5.075581
5.075581
4.551448
4.551448
4.045078
4.045078
3.557882
3.557881
3.090572
3.090572
2.641611
2.641611
2.208291
2.208291
1.788624
1.788624
1.38131
1.38131
0.9864793
0.9864792
0.6056482
0.605648
0.2104474
0.2104472
)
;

boundaryField
{
    leftandright
    {
        type            cyclic;
        value           nonuniform List<scalar> 
150
(
308.2725
307.8198
307.2554
306.4567
305.2562
303.4618
300.8887
297.3991
292.9359
287.5368
281.0815
272.6301
261.5081
248.5717
234.7582
220.4201
205.8732
191.3899
177.1973
163.4787
150.3751
137.9883
126.3851
115.6015
105.6476
96.51271
88.16994
80.58056
73.69788
67.4704
61.84446
56.76626
52.18333
48.04562
44.30622
40.92192
37.85352
35.06578
32.52727
30.21018
28.08999
26.14521
24.35705
22.70912
21.1871
19.77845
18.47211
17.25826
16.12811
15.07367
14.08771
13.16356
12.29506
11.47651
10.70264
9.968542
9.269697
8.601964
7.961613
7.345367
6.750464
6.174735
5.616689
5.075581
4.551448
4.045078
3.557881
3.090572
2.641611
2.208291
1.788624
1.38131
0.9864792
0.6056481
0.2104473
308.2725
307.8198
307.2554
306.4567
305.2562
303.4618
300.8887
297.3991
292.9359
287.5368
281.0815
272.6301
261.5081
248.5717
234.7582
220.4201
205.8732
191.3899
177.1973
163.4787
150.3751
137.9883
126.3851
115.6015
105.6476
96.51271
88.16994
80.58056
73.69788
67.4704
61.84446
56.76626
52.18333
48.04562
44.30622
40.92192
37.85352
35.06578
32.52727
30.21018
28.08999
26.14521
24.35705
22.70912
21.1871
19.77845
18.47211
17.25826
16.12811
15.07367
14.08771
13.16356
12.29506
11.47651
10.70264
9.968542
9.269697
8.601964
7.961613
7.345367
6.750464
6.174735
5.616689
5.075581
4.551448
4.045078
3.557881
3.090572
2.641611
2.208291
1.788624
1.38131
0.9864792
0.6056481
0.2104473
)
;
    }
    wall
    {
        type            calculated;
        value           nonuniform List<scalar> 2(308.485 308.4808);
    }
    frontAndBack
    {
        type            empty;
    }
    middle
    {
        type            symmetryPlane;
        value           nonuniform List<scalar> 2(0.6196102 0.6196102);
    }
}


// ************************************************************************* //
