/*--------------------------------*- C++ -*----------------------------------*\
| =========                 |                                                 |
| \\      /  F ield         | foam-extend: Open Source CFD                    |
|  \\    /   O peration     | Version:     4.0                                |
|   \\  /    A nd           | Web:         http://www.foam-extend.org         |
|    \\/     M anipulation  |                                                 |
\*---------------------------------------------------------------------------*/
FoamFile
{
    version     2.0;
    format      ascii;
    class       volSymmTensorField;
    location    "100";
    object      RStress;
}
// * * * * * * * * * * * * * * * * * * * * * * * * * * * * * * * * * * * * * //

dimensions      [0 2 -2 0 0 0 0];

internalField   nonuniform List<symmTensor> 
150
(
(0.006824665 -1.090187e-06 0 3.312203e-07 0 0.0001495581)
(0.006824673 -1.090177e-06 0 3.312204e-07 0 0.0001495509)
(0.0736698 -5.666623e-05 0 1.635269e-05 0 0.001615009)
(0.07366983 -5.666608e-05 0 1.635269e-05 0 0.001614991)
(0.1963545 -0.0003684523 0 0.0001013132 0 0.004307714)
(0.1963545 -0.0003684529 0 0.0001013133 0 0.004307709)
(0.3759437 -0.001305947 0 0.0003438506 0 0.009726046)
(0.3759437 -0.00130595 0 0.0003438507 0 0.009726048)
(0.6133363 -0.003384794 0 0.0008594807 0 0.0195878)
(0.6133364 -0.003384801 0 0.0008594809 0 0.01958781)
(0.9105232 -0.007206068 0 0.001781696 0 0.03427735)
(0.9105233 -0.00720608 0 0.001781696 0 0.03427735)
(1.268461 -0.01335002 0 0.003252805 0 0.05454222)
(1.268461 -0.01335004 0 0.003252805 0 0.05454223)
(1.687091 -0.02224226 0 0.005415142 0 0.08099292)
(1.687091 -0.02224228 0 0.005415143 0 0.08099293)
(2.164972 -0.03404007 0 0.008403717 0 0.1140829)
(2.164973 -0.0340401 0 0.008403719 0 0.1140829)
(2.699148 -0.0485943 0 0.01234149 0 0.1541021)
(2.699148 -0.04859433 0 0.01234149 0 0.1541021)
(3.28532 -0.06545187 0 0.01733767 0 0.2011909)
(3.285321 -0.0654519 0 0.01733767 0 0.2011909)
(3.917273 -0.08689231 0 0.02347887 0 0.2552836)
(3.917274 -0.08689234 0 0.02347887 0 0.2552836)
(4.582155 -0.1203398 0 0.030791 0 0.3157567)
(4.582155 -0.1203398 0 0.030791 0 0.3157568)
(5.258867 -0.1572644 0 0.03926102 0 0.3814814)
(5.258867 -0.1572645 0 0.03926103 0 0.3814815)
(5.928562 -0.1966369 0 0.04887922 0 0.4513787)
(5.928562 -0.196637 0 0.04887923 0 0.4513787)
(6.573374 -0.2373577 0 0.05961609 0 0.5242616)
(6.573374 -0.2373578 0 0.05961611 0 0.5242616)
(7.177642 -0.2784709 0 0.07142468 0 0.5989059)
(7.177642 -0.2784709 0 0.0714247 0 0.598906)
(7.728739 -0.3191684 0 0.0842421 0 0.6741147)
(7.72874 -0.3191685 0 0.08424212 0 0.6741147)
(8.217492 -0.3587863 0 0.09799222 0 0.7487724)
(8.217493 -0.3587864 0 0.09799224 0 0.7487725)
(8.638234 -0.3967986 0 0.1125887 0 0.8218865)
(8.638235 -0.3967986 0 0.1125887 0 0.8218866)
(8.988564 -0.4328099 0 0.1279381 0 0.8926136)
(8.988564 -0.43281 0 0.1279381 0 0.8926137)
(9.2689 -0.466546 0 0.1439426 0 0.9602717)
(9.2689 -0.4665461 0 0.1439426 0 0.9602718)
(9.481924 -0.4978406 0 0.1605027 0 1.024341)
(9.481924 -0.4978407 0 0.1605028 0 1.024341)
(9.631986 -0.5266207 0 0.1775191 0 1.084451)
(9.631986 -0.5266208 0 0.1775191 0 1.084451)
(9.724536 -0.55289 0 0.1948938 0 1.140368)
(9.724536 -0.5528901 0 0.1948938 0 1.140368)
(9.765627 -0.576712 0 0.2125317 0 1.191971)
(9.765628 -0.5767121 0 0.2125318 0 1.191971)
(9.761507 -0.5981932 0 0.2303409 0 1.239232)
(9.761507 -0.5981933 0 0.2303409 0 1.239232)
(9.7183 -0.6174685 0 0.2482332 0 1.282195)
(9.7183 -0.6174686 0 0.2482332 0 1.282195)
(9.64179 -0.6346876 0 0.2661242 0 1.320955)
(9.64179 -0.6346877 0 0.2661242 0 1.320955)
(9.537274 -0.6500043 0 0.2839337 0 1.355642)
(9.537274 -0.6500044 0 0.2839338 0 1.355642)
(9.409485 -0.6635677 0 0.3015859 0 1.38641)
(9.409486 -0.6635678 0 0.3015859 0 1.38641)
(9.262565 -0.6755156 0 0.3190093 0 1.413423)
(9.262566 -0.6755157 0 0.3190093 0 1.413423)
(9.100071 -0.6859707 0 0.3361377 0 1.436849)
(9.100071 -0.6859707 0 0.3361377 0 1.43685)
(8.925005 -0.6950377 0 0.3529105 0 1.456857)
(8.925005 -0.6950378 0 0.3529105 0 1.456858)
(8.739867 -0.7028035 0 0.3692734 0 1.473611)
(8.739867 -0.7028036 0 0.3692734 0 1.473611)
(8.546711 -0.7093347 0 0.3851764 0 1.487262)
(8.546712 -0.7093348 0 0.3851765 0 1.487262)
(8.347213 -0.7146793 0 0.4005726 0 1.497951)
(8.347213 -0.7146793 0 0.4005727 0 1.497951)
(8.142724 -0.7188682 0 0.415417 0 1.505802)
(8.142724 -0.7188682 0 0.415417 0 1.505802)
(7.934327 -0.7219183 0 0.4296658 0 1.510925)
(7.934327 -0.7219184 0 0.4296659 0 1.510925)
(7.722887 -0.7238362 0 0.4432763 0 1.513414)
(7.722887 -0.7238362 0 0.4432763 0 1.513414)
(7.509091 -0.724621 0 0.4562064 0 1.513353)
(7.509091 -0.724621 0 0.4562064 0 1.513353)
(7.293485 -0.7242685 0 0.4684148 0 1.510813)
(7.293485 -0.7242685 0 0.4684148 0 1.510813)
(7.076507 -0.7227741 0 0.479861 0 1.505858)
(7.076507 -0.7227741 0 0.479861 0 1.505858)
(6.858511 -0.7201356 0 0.4905055 0 1.498546)
(6.858511 -0.7201356 0 0.4905055 0 1.498546)
(6.639787 -0.7163542 0 0.5003103 0 1.488928)
(6.639787 -0.7163542 0 0.5003103 0 1.488928)
(6.420578 -0.7114351 0 0.509239 0 1.477053)
(6.420578 -0.7114351 0 0.509239 0 1.477053)
(6.20109 -0.7053868 0 0.5172575 0 1.462969)
(6.20109 -0.7053868 0 0.5172575 0 1.462969)
(5.981504 -0.69822 0 0.5243343 0 1.446721)
(5.981504 -0.69822 0 0.5243343 0 1.446721)
(5.761981 -0.6899454 0 0.5304414 0 1.428357)
(5.761981 -0.6899454 0 0.5304414 0 1.428357)
(5.542666 -0.6805725 0 0.5355548 0 1.407926)
(5.542666 -0.6805725 0 0.5355548 0 1.407926)
(5.323701 -0.6701082 0 0.5396549 0 1.385482)
(5.323701 -0.6701082 0 0.5396549 0 1.385482)
(5.105224 -0.6585555 0 0.542728 0 1.36108)
(5.105224 -0.6585555 0 0.542728 0 1.36108)
(4.887381 -0.6459128 0 0.5447666 0 1.334786)
(4.887381 -0.6459128 0 0.5447666 0 1.334786)
(4.670335 -0.6321741 0 0.5457707 0 1.30667)
(4.670335 -0.632174 0 0.5457707 0 1.30667)
(4.454276 -0.617328 0 0.5457481 0 1.276816)
(4.454276 -0.617328 0 0.5457481 0 1.276816)
(4.239435 -0.6013584 0 0.5447162 0 1.24532)
(4.239435 -0.6013584 0 0.5447162 0 1.24532)
(4.026103 -0.5842444 0 0.5427014 0 1.212295)
(4.026103 -0.5842444 0 0.5427014 0 1.212295)
(3.814645 -0.5659601 0 0.5397404 0 1.177873)
(3.814645 -0.5659601 0 0.5397404 0 1.177873)
(3.605523 -0.5464749 0 0.5358791 0 1.142209)
(3.605523 -0.5464749 0 0.535879 0 1.142209)
(3.399316 -0.5257534 0 0.531171 0 1.105483)
(3.399316 -0.5257534 0 0.5311709 0 1.105483)
(3.196743 -0.5037554 0 0.5256747 0 1.067902)
(3.196743 -0.5037554 0 0.5256747 0 1.067902)
(2.998681 -0.4804355 0 0.5194489 0 1.0297)
(2.998681 -0.4804355 0 0.5194488 0 1.0297)
(2.806181 -0.4557427 0 0.5125438 0 0.9911389)
(2.806181 -0.4557426 0 0.5125438 0 0.9911389)
(2.620478 -0.4296199 0 0.5049909 0 0.9524985)
(2.620478 -0.4296199 0 0.5049909 0 0.9524985)
(2.442985 -0.4020033 0 0.4967882 0 0.9140721)
(2.442985 -0.4020033 0 0.4967882 0 0.9140721)
(2.275288 -0.3728215 0 0.4878691 0 0.8761493)
(2.275288 -0.3728215 0 0.4878691 0 0.8761493)
(2.11913 -0.3419948 0 0.4780748 0 0.8389954)
(2.11913 -0.3419948 0 0.4780747 0 0.8389954)
(1.976399 -0.3093291 0 0.4672311 0 0.802821)
(1.976399 -0.309329 0 0.467231 0 0.802821)
(1.848085 -0.2747974 0 0.4554069 0 0.768221)
(1.848085 -0.2747974 0 0.4554069 0 0.768221)
(1.734662 -0.2383996 0 0.4440523 0 0.7360704)
(1.734662 -0.2383996 0 0.4440523 0 0.7360704)
(1.636863 -0.2000329 0 0.4312247 0 0.7072186)
(1.636863 -0.2000329 0 0.4312247 0 0.7072186)
(1.555628 -0.1595754 0 0.4263708 0 0.6824883)
(1.555628 -0.1595753 0 0.4263708 0 0.6824883)
(1.492082 -0.1168974 0 0.4012825 0 0.6626756)
(1.492082 -0.1168974 0 0.4012825 0 0.6626755)
(1.44763 -0.0718721 0 0.4299664 0 0.6485783)
(1.44763 -0.07187208 0 0.4299664 0 0.6485783)
(1.424068 -0.02438262 0 0.3924252 0 0.6410252)
(1.424068 -0.02438259 0 0.3924252 0 0.6410252)
)
;

boundaryField
{
    leftandright
    {
        type            cyclic;
        value           nonuniform List<symmTensor> 
150
(
(0.006824669 -1.090182e-06 0 3.312204e-07 0 0.0001495545)
(0.07366982 -5.666615e-05 0 1.635269e-05 0 0.001615)
(0.1963545 -0.0003684526 0 0.0001013133 0 0.004307712)
(0.3759437 -0.001305949 0 0.0003438507 0 0.009726047)
(0.6133364 -0.003384797 0 0.0008594808 0 0.0195878)
(0.9105232 -0.007206074 0 0.001781696 0 0.03427735)
(1.268461 -0.01335003 0 0.003252805 0 0.05454223)
(1.687091 -0.02224227 0 0.005415142 0 0.08099292)
(2.164973 -0.03404008 0 0.008403718 0 0.1140829)
(2.699148 -0.04859431 0 0.01234149 0 0.1541021)
(3.285321 -0.06545189 0 0.01733767 0 0.2011909)
(3.917273 -0.08689233 0 0.02347887 0 0.2552836)
(4.582155 -0.1203398 0 0.030791 0 0.3157567)
(5.258867 -0.1572644 0 0.03926102 0 0.3814815)
(5.928562 -0.196637 0 0.04887923 0 0.4513787)
(6.573374 -0.2373577 0 0.0596161 0 0.5242616)
(7.177642 -0.2784709 0 0.07142469 0 0.5989059)
(7.728739 -0.3191685 0 0.08424211 0 0.6741147)
(8.217493 -0.3587864 0 0.09799223 0 0.7487725)
(8.638235 -0.3967986 0 0.1125887 0 0.8218866)
(8.988564 -0.4328099 0 0.1279381 0 0.8926136)
(9.2689 -0.466546 0 0.1439426 0 0.9602718)
(9.481924 -0.4978406 0 0.1605028 0 1.024341)
(9.631986 -0.5266208 0 0.1775191 0 1.084451)
(9.724536 -0.5528901 0 0.1948938 0 1.140368)
(9.765628 -0.576712 0 0.2125317 0 1.191971)
(9.761507 -0.5981932 0 0.2303409 0 1.239232)
(9.7183 -0.6174685 0 0.2482332 0 1.282195)
(9.64179 -0.6346877 0 0.2661242 0 1.320955)
(9.537274 -0.6500044 0 0.2839337 0 1.355642)
(9.409486 -0.6635677 0 0.3015859 0 1.38641)
(9.262565 -0.6755157 0 0.3190093 0 1.413423)
(9.100071 -0.6859707 0 0.3361377 0 1.436849)
(8.925005 -0.6950377 0 0.3529105 0 1.456857)
(8.739867 -0.7028035 0 0.3692734 0 1.473611)
(8.546711 -0.7093348 0 0.3851764 0 1.487262)
(8.347213 -0.7146793 0 0.4005727 0 1.497951)
(8.142724 -0.7188682 0 0.415417 0 1.505802)
(7.934327 -0.7219184 0 0.4296658 0 1.510925)
(7.722887 -0.7238362 0 0.4432763 0 1.513414)
(7.509091 -0.724621 0 0.4562064 0 1.513353)
(7.293485 -0.7242685 0 0.4684148 0 1.510813)
(7.076507 -0.7227741 0 0.479861 0 1.505858)
(6.858511 -0.7201356 0 0.4905055 0 1.498546)
(6.639787 -0.7163542 0 0.5003103 0 1.488928)
(6.420578 -0.7114351 0 0.509239 0 1.477053)
(6.20109 -0.7053868 0 0.5172575 0 1.462969)
(5.981504 -0.69822 0 0.5243343 0 1.446721)
(5.761981 -0.6899454 0 0.5304414 0 1.428357)
(5.542666 -0.6805725 0 0.5355548 0 1.407926)
(5.323701 -0.6701082 0 0.5396549 0 1.385482)
(5.105224 -0.6585555 0 0.542728 0 1.36108)
(4.887381 -0.6459128 0 0.5447666 0 1.334786)
(4.670335 -0.6321741 0 0.5457707 0 1.30667)
(4.454276 -0.617328 0 0.5457481 0 1.276816)
(4.239435 -0.6013584 0 0.5447162 0 1.24532)
(4.026103 -0.5842444 0 0.5427014 0 1.212295)
(3.814645 -0.5659601 0 0.5397404 0 1.177873)
(3.605523 -0.5464749 0 0.535879 0 1.142209)
(3.399316 -0.5257534 0 0.5311709 0 1.105483)
(3.196743 -0.5037554 0 0.5256747 0 1.067902)
(2.998681 -0.4804355 0 0.5194488 0 1.0297)
(2.806181 -0.4557426 0 0.5125438 0 0.9911389)
(2.620478 -0.4296199 0 0.5049909 0 0.9524985)
(2.442985 -0.4020033 0 0.4967882 0 0.9140721)
(2.275288 -0.3728215 0 0.4878691 0 0.8761493)
(2.11913 -0.3419948 0 0.4780748 0 0.8389954)
(1.976399 -0.3093291 0 0.467231 0 0.802821)
(1.848085 -0.2747974 0 0.4554069 0 0.768221)
(1.734662 -0.2383996 0 0.4440523 0 0.7360704)
(1.636863 -0.2000329 0 0.4312247 0 0.7072186)
(1.555628 -0.1595753 0 0.4263708 0 0.6824883)
(1.492082 -0.1168974 0 0.4012825 0 0.6626756)
(1.44763 -0.07187209 0 0.4299664 0 0.6485783)
(1.424068 -0.0243826 0 0.3924252 0 0.6410252)
(0.006824669 -1.090182e-06 0 3.312204e-07 0 0.0001495545)
(0.07366982 -5.666615e-05 0 1.635269e-05 0 0.001615)
(0.1963545 -0.0003684526 0 0.0001013133 0 0.004307712)
(0.3759437 -0.001305949 0 0.0003438507 0 0.009726047)
(0.6133364 -0.003384797 0 0.0008594808 0 0.0195878)
(0.9105232 -0.007206074 0 0.001781696 0 0.03427735)
(1.268461 -0.01335003 0 0.003252805 0 0.05454223)
(1.687091 -0.02224227 0 0.005415142 0 0.08099292)
(2.164973 -0.03404008 0 0.008403718 0 0.1140829)
(2.699148 -0.04859431 0 0.01234149 0 0.1541021)
(3.285321 -0.06545189 0 0.01733767 0 0.2011909)
(3.917273 -0.08689233 0 0.02347887 0 0.2552836)
(4.582155 -0.1203398 0 0.030791 0 0.3157567)
(5.258867 -0.1572644 0 0.03926102 0 0.3814815)
(5.928562 -0.196637 0 0.04887923 0 0.4513787)
(6.573374 -0.2373577 0 0.0596161 0 0.5242616)
(7.177642 -0.2784709 0 0.07142469 0 0.5989059)
(7.728739 -0.3191685 0 0.08424211 0 0.6741147)
(8.217493 -0.3587864 0 0.09799223 0 0.7487725)
(8.638235 -0.3967986 0 0.1125887 0 0.8218866)
(8.988564 -0.4328099 0 0.1279381 0 0.8926136)
(9.2689 -0.466546 0 0.1439426 0 0.9602718)
(9.481924 -0.4978406 0 0.1605028 0 1.024341)
(9.631986 -0.5266208 0 0.1775191 0 1.084451)
(9.724536 -0.5528901 0 0.1948938 0 1.140368)
(9.765628 -0.576712 0 0.2125317 0 1.191971)
(9.761507 -0.5981932 0 0.2303409 0 1.239232)
(9.7183 -0.6174685 0 0.2482332 0 1.282195)
(9.64179 -0.6346877 0 0.2661242 0 1.320955)
(9.537274 -0.6500044 0 0.2839337 0 1.355642)
(9.409486 -0.6635677 0 0.3015859 0 1.38641)
(9.262565 -0.6755157 0 0.3190093 0 1.413423)
(9.100071 -0.6859707 0 0.3361377 0 1.436849)
(8.925005 -0.6950377 0 0.3529105 0 1.456857)
(8.739867 -0.7028035 0 0.3692734 0 1.473611)
(8.546711 -0.7093348 0 0.3851764 0 1.487262)
(8.347213 -0.7146793 0 0.4005727 0 1.497951)
(8.142724 -0.7188682 0 0.415417 0 1.505802)
(7.934327 -0.7219184 0 0.4296658 0 1.510925)
(7.722887 -0.7238362 0 0.4432763 0 1.513414)
(7.509091 -0.724621 0 0.4562064 0 1.513353)
(7.293485 -0.7242685 0 0.4684148 0 1.510813)
(7.076507 -0.7227741 0 0.479861 0 1.505858)
(6.858511 -0.7201356 0 0.4905055 0 1.498546)
(6.639787 -0.7163542 0 0.5003103 0 1.488928)
(6.420578 -0.7114351 0 0.509239 0 1.477053)
(6.20109 -0.7053868 0 0.5172575 0 1.462969)
(5.981504 -0.69822 0 0.5243343 0 1.446721)
(5.761981 -0.6899454 0 0.5304414 0 1.428357)
(5.542666 -0.6805725 0 0.5355548 0 1.407926)
(5.323701 -0.6701082 0 0.5396549 0 1.385482)
(5.105224 -0.6585555 0 0.542728 0 1.36108)
(4.887381 -0.6459128 0 0.5447666 0 1.334786)
(4.670335 -0.6321741 0 0.5457707 0 1.30667)
(4.454276 -0.617328 0 0.5457481 0 1.276816)
(4.239435 -0.6013584 0 0.5447162 0 1.24532)
(4.026103 -0.5842444 0 0.5427014 0 1.212295)
(3.814645 -0.5659601 0 0.5397404 0 1.177873)
(3.605523 -0.5464749 0 0.535879 0 1.142209)
(3.399316 -0.5257534 0 0.5311709 0 1.105483)
(3.196743 -0.5037554 0 0.5256747 0 1.067902)
(2.998681 -0.4804355 0 0.5194488 0 1.0297)
(2.806181 -0.4557426 0 0.5125438 0 0.9911389)
(2.620478 -0.4296199 0 0.5049909 0 0.9524985)
(2.442985 -0.4020033 0 0.4967882 0 0.9140721)
(2.275288 -0.3728215 0 0.4878691 0 0.8761493)
(2.11913 -0.3419948 0 0.4780748 0 0.8389954)
(1.976399 -0.3093291 0 0.467231 0 0.802821)
(1.848085 -0.2747974 0 0.4554069 0 0.768221)
(1.734662 -0.2383996 0 0.4440523 0 0.7360704)
(1.636863 -0.2000329 0 0.4312247 0 0.7072186)
(1.555628 -0.1595753 0 0.4263708 0 0.6824883)
(1.492082 -0.1168974 0 0.4012825 0 0.6626756)
(1.44763 -0.07187209 0 0.4299664 0 0.6485783)
(1.424068 -0.0243826 0 0.3924252 0 0.6410252)
)
;
    }
    wall
    {
        type            calculated;
        value           nonuniform List<symmTensor> 2((3.333333e-11 -3.200189e-10 0 9.999659e-11 0 6.666667e-11) (3.333333e-11 -3.200145e-10 0 9.99966e-11 0 6.666667e-11));
    }
    frontAndBack
    {
        type            empty;
    }
    middle
    {
        type            symmetryPlane;
        value           nonuniform List<symmTensor> 2((1.424068 0 0 0.5333325 0 0.6410252) (1.424068 0 0 0.5333325 0 0.6410252));
    }
}


// ************************************************************************* //
