/*--------------------------------*- C++ -*----------------------------------*\
| =========                 |                                                 |
| \\      /  F ield         | foam-extend: Open Source CFD                    |
|  \\    /   O peration     | Version:     4.0                                |
|   \\  /    A nd           | Web:         http://www.foam-extend.org         |
|    \\/     M anipulation  |                                                 |
\*---------------------------------------------------------------------------*/
FoamFile
{
    version     2.0;
    format      ascii;
    class       volSymmTensorField;
    location    "100";
    object      tauP;
}
// * * * * * * * * * * * * * * * * * * * * * * * * * * * * * * * * * * * * * //

dimensions      [0 2 -2 0 0 0 0];

internalField   nonuniform List<symmTensor> 
150
(
(3.917044 0.07395845 0 6.753884e-06 0 3.621636e-06)
(3.917842 0.07397405 0 6.882711e-06 0 3.783683e-06)
(3.913982 0.07394309 0 7.279279e-06 0 3.686367e-06)
(3.914169 0.07394543 0 7.289768e-06 0 3.748953e-06)
(3.906741 0.07389321 0 8.397204e-06 0 3.755844e-06)
(3.906761 0.07389437 0 8.389994e-06 0 3.770415e-06)
(3.895197 0.07382245 0 1.059038e-05 0 3.884695e-06)
(3.895198 0.07382312 0 1.059033e-05 0 3.884952e-06)
(3.878507 0.0737272 0 1.446449e-05 0 4.053565e-06)
(3.878516 0.07372756 0 1.446679e-05 0 4.056538e-06)
(3.855402 0.07360229 0 2.091073e-05 0 4.210008e-06)
(3.855418 0.07360248 0 2.091142e-05 0 4.218585e-06)
(3.824574 0.07344699 0 3.12332e-05 0 4.310795e-06)
(3.824592 0.07344708 0 3.1232e-05 0 4.322518e-06)
(3.784998 0.07326999 0 4.719787e-05 0 4.372108e-06)
(3.785014 0.07327004 0 4.7196e-05 0 4.384472e-06)
(3.736023 0.07309085 0 7.101958e-05 0 4.492172e-06)
(3.736036 0.0730909 0 7.101802e-05 0 4.503125e-06)
(3.676929 0.07293371 0 0.0001053733 0 4.797043e-06)
(3.676938 0.07293373 0 0.0001053728 0 4.805913e-06)
(3.605422 0.0728023 0 0.0001535492 0 5.198649e-06)
(3.605427 0.0728023 0 0.00015355 0 5.20523e-06)
(3.516381 0.07264951 0 0.0002201991 0 5.110186e-06)
(3.516383 0.07264952 0 0.0002202015 0 5.114673e-06)
(3.406632 0.07244041 0 0.0003116752 0 4.116281e-06)
(3.406631 0.07244047 0 0.000311679 0 4.119135e-06)
(3.279509 0.0722187 0 0.0004295503 0 2.607789e-06)
(3.279506 0.0722187 0 0.0004295552 0 2.609128e-06)
(3.141599 0.07205929 0 0.0005762263 0 1.23865e-06)
(3.141594 0.0720593 0 0.0005762322 0 1.238785e-06)
(2.997602 0.07199135 0 0.000753841 0 2.140451e-07)
(2.997598 0.0719914 0 0.0007538477 0 2.139055e-07)
(2.850743 0.07201601 0 0.0009643431 0 -4.690423e-07)
(2.850739 0.07201609 0 0.000964351 0 -4.69524e-07)
(2.703217 0.07211878 0 0.001209538 0 -8.844929e-07)
(2.703213 0.07211885 0 0.001209546 0 -8.849599e-07)
(2.556542 0.07227532 0 0.001490966 0 -1.111162e-06)
(2.556539 0.07227539 0 0.001490974 0 -1.111388e-06)
(2.411786 0.07245449 0 0.001809687 0 -1.212576e-06)
(2.411784 0.07245455 0 0.001809695 0 -1.212252e-06)
(2.269708 0.07261987 0 0.002166008 0 -1.232889e-06)
(2.269706 0.07261993 0 0.002166016 0 -1.232242e-06)
(2.130839 0.07273057 0 0.002559193 0 -1.203325e-06)
(2.130839 0.07273063 0 0.002559201 0 -1.202432e-06)
(1.995551 0.07274273 0 0.002987176 0 -1.144455e-06)
(1.99555 0.07274279 0 0.002987183 0 -1.142966e-06)
(1.864096 0.07261111 0 0.003446314 0 -1.069753e-06)
(1.864096 0.07261116 0 0.003446321 0 -1.067762e-06)
(1.736651 0.07229097 0 0.003931201 0 -9.887469e-07)
(1.736652 0.07229102 0 0.003931205 0 -9.862204e-07)
(1.613347 0.07174045 0 0.004434588 0 -9.07034e-07)
(1.613348 0.07174051 0 0.004434594 0 -9.043739e-07)
(1.494289 0.07092293 0 0.004947433 0 -8.278059e-07)
(1.494289 0.07092298 0 0.004947439 0 -8.247933e-07)
(1.379572 0.06980877 0 0.005459065 0 -7.530326e-07)
(1.379573 0.06980882 0 0.005459071 0 -7.499152e-07)
(1.269292 0.06837728 0 0.0059575 0 -6.828883e-07)
(1.269293 0.0683773 0 0.005957505 0 -6.798904e-07)
(1.163547 0.06661781 0 0.006429892 0 -6.175554e-07)
(1.163547 0.06661786 0 0.006429897 0 -6.14921e-07)
(1.062434 0.06453052 0 0.006863083 0 -5.570698e-07)
(1.062435 0.06453057 0 0.006863086 0 -5.547578e-07)
(0.9660583 0.06212654 0 0.007244235 0 -5.014161e-07)
(0.9660588 0.06212661 0 0.007244241 0 -4.99064e-07)
(0.8745204 0.05942775 0 0.007561523 0 -4.497038e-07)
(0.8745205 0.05942779 0 0.007561528 0 -4.481719e-07)
(0.7879233 0.05646595 0 0.007804833 0 -4.027285e-07)
(0.7879237 0.056466 0 0.007804838 0 -4.013291e-07)
(0.7063708 0.05328217 0 0.007966432 0 -3.598978e-07)
(0.7063711 0.05328218 0 0.007966437 0 -3.589892e-07)
(0.6299634 0.04992482 0 0.008041461 0 -3.207722e-07)
(0.6299637 0.04992483 0 0.008041463 0 -3.200782e-07)
(0.5587946 0.0464481 0 0.008028297 0 -2.852082e-07)
(0.5587949 0.04644814 0 0.008028301 0 -2.84717e-07)
(0.4929437 0.0429099 0 0.007928816 0 -2.523164e-07)
(0.4929436 0.04290994 0 0.007928823 0 -2.523627e-07)
(0.4324645 0.03936968 0 0.007748412 0 -2.221196e-07)
(0.4324648 0.03936968 0 0.007748414 0 -2.225255e-07)
(0.377372 0.03588544 0 0.007495721 0 -1.944657e-07)
(0.3773722 0.03588544 0 0.007495724 0 -1.949956e-07)
(0.3276272 0.03251122 0 0.007182087 0 -1.68247e-07)
(0.3276275 0.03251125 0 0.007182093 0 -1.688636e-07)
(0.2831239 0.02929424 0 0.006820723 0 -1.436172e-07)
(0.2831241 0.02929424 0 0.006820729 0 -1.448262e-07)
(0.243679 0.02627231 0 0.006425664 0 -1.208578e-07)
(0.2436791 0.02627232 0 0.006425667 0 -1.221048e-07)
(0.209032 0.02347247 0 0.006010692 0 -1.002523e-07)
(0.2090321 0.02347248 0 0.006010695 0 -1.011988e-07)
(0.1788528 0.02091032 0 0.005588356 0 -8.143628e-08)
(0.1788529 0.02091033 0 0.005588358 0 -8.232155e-08)
(0.1527569 0.01859058 0 0.005169243 0 -6.537685e-08)
(0.152757 0.01859059 0 0.005169246 0 -6.592303e-08)
(0.1303269 0.01650869 0 0.004761605 0 -5.142315e-08)
(0.1303269 0.01650869 0 0.004761605 0 -5.187597e-08)
(0.1111349 0.01465289 0 0.004371297 0 -3.976823e-08)
(0.111135 0.0146529 0 0.0043713 0 -3.984082e-08)
(0.09476333 0.01300665 0 0.004002019 0 -3.024953e-08)
(0.0947634 0.01300665 0 0.004002022 0 -3.021036e-08)
(0.08082025 0.01155074 0 0.003655674 0 -2.310658e-08)
(0.08082032 0.01155075 0 0.003655675 0 -2.296099e-08)
(0.0689499 0.01026504 0 0.003332801 0 -1.746614e-08)
(0.06894995 0.01026504 0 0.003332804 0 -1.696195e-08)
(0.05883756 0.009129784 0 0.003032995 0 -1.286764e-08)
(0.05883759 0.009129785 0 0.003032995 0 -1.22919e-08)
(0.0502102 0.008126391 0 0.002755219 0 -9.645709e-09)
(0.05021022 0.008126393 0 0.00275522 0 -9.011325e-09)
(0.04283461 0.007237902 0 0.002498093 0 -7.134038e-09)
(0.04283463 0.007237901 0 0.002498096 0 -6.196206e-09)
(0.0365137 0.006449161 0 0.002260071 0 -5.418378e-09)
(0.03651375 0.00644916 0 0.002260072 0 -4.467811e-09)
(0.03108246 0.005746837 0 0.00203956 0 -3.775626e-09)
(0.03108246 0.005746839 0 0.002039561 0 -3.131141e-09)
(0.02640327 0.005119335 0 0.001835021 0 -2.830289e-09)
(0.02640326 0.005119334 0 0.001835021 0 -2.233766e-09)
(0.02236211 0.004556646 0 0.001645007 0 -2.220957e-09)
(0.02236211 0.004556648 0 0.00164501 0 -1.690375e-09)
(0.01886482 0.004050224 0 0.001468214 0 -1.25827e-09)
(0.01886482 0.004050223 0 0.001468214 0 -1.077523e-09)
(0.01583384 0.003592815 0 0.001303477 0 -8.102815e-10)
(0.01583384 0.003592815 0 0.001303477 0 -7.109402e-10)
(0.0132055 0.003178333 0 0.001149797 0 -2.255596e-10)
(0.0132055 0.003178332 0 0.001149797 0 -1.969672e-10)
(0.01092763 0.002801724 0 0.001006349 0 -1.040358e-10)
(0.01092763 0.002801724 0 0.001006349 0 -1.304279e-10)
(0.008957427 0.002458863 0 0.0008724862 0 1.117022e-10)
(0.008957426 0.002458863 0 0.0008724862 0 4.312195e-11)
(0.007259626 0.002146432 0 0.0007477493 0 2.421458e-11)
(0.007259626 0.002146432 0 0.0007477493 0 -7.975887e-11)
(0.005804768 0.001861794 0 0.0006318519 0 -2.873523e-10)
(0.005804768 0.001861795 0 0.0006318546 0 -4.122182e-10)
(0.004567902 0.001602911 0 0.0005247596 0 -8.205685e-10)
(0.004567908 0.001602912 0 0.0005247599 0 -8.873775e-10)
(0.00352702 0.001368135 0 0.0004266352 0 -2.00207e-09)
(0.003527024 0.001368136 0 0.0004266358 0 -1.785246e-09)
(0.002658497 0.001155243 0 0.0003369177 0 -3.393147e-09)
(0.002658502 0.001155244 0 0.0003369186 0 -1.724223e-09)
(0.001944443 0.0009623598 0 0.0002574705 0 -4.074499e-09)
(0.001944445 0.00096236 0 0.0002574715 0 -8.369673e-10)
(0.001357765 0.000785199 0 0.0001851307 0 -3.232371e-09)
(0.001357766 0.0007851987 0 0.0001851312 0 -3.261784e-10)
(0.0009078226 0.0006252739 0 0.0001329795 0 1.147104e-09)
(0.0009078182 0.0006252727 0 0.0001329787 0 1.112053e-09)
(0.0005063781 0.0004697169 0 6.082728e-05 0 8.189239e-09)
(0.0005063701 0.000469715 0 6.082513e-05 0 2.123666e-09)
(0.0003718183 0.000341433 0 9.692836e-05 0 3.833879e-09)
(0.0003718103 0.0003414341 0 9.692125e-05 0 -8.319372e-09)
(-5.074535e-05 0.0001901437 0 -7.425393e-05 0 -1.345258e-09)
(-5.07446e-05 0.0001901445 0 -7.42528e-05 0 1.130427e-09)
(9.758709e-05 6.77651e-05 0 5.325882e-05 0 2.649999e-09)
(9.758321e-05 6.776428e-05 0 5.325388e-05 0 -1.19628e-09)
)
;

boundaryField
{
    leftandright
    {
        type            cyclic;
        value           nonuniform List<symmTensor> 
150
(
(3.917443 0.07396625 0 6.818296e-06 0 3.702657e-06)
(3.914075 0.07394426 0 7.284523e-06 0 3.71766e-06)
(3.906751 0.07389379 0 8.393599e-06 0 3.763129e-06)
(3.895198 0.07382279 0 1.059035e-05 0 3.884824e-06)
(3.878511 0.07372738 0 1.446564e-05 0 4.055051e-06)
(3.85541 0.07360238 0 2.091107e-05 0 4.214296e-06)
(3.824583 0.07344703 0 3.12326e-05 0 4.316656e-06)
(3.785006 0.07327002 0 4.719694e-05 0 4.37829e-06)
(3.736029 0.07309087 0 7.10188e-05 0 4.497649e-06)
(3.676933 0.07293372 0 0.000105373 0 4.801478e-06)
(3.605425 0.0728023 0 0.0001535496 0 5.201939e-06)
(3.516382 0.07264951 0 0.0002202003 0 5.11243e-06)
(3.406632 0.07244044 0 0.0003116771 0 4.117708e-06)
(3.279508 0.0722187 0 0.0004295528 0 2.608458e-06)
(3.141596 0.0720593 0 0.0005762292 0 1.238717e-06)
(2.9976 0.07199137 0 0.0007538443 0 2.139753e-07)
(2.850741 0.07201605 0 0.000964347 0 -4.692831e-07)
(2.703215 0.07211882 0 0.001209542 0 -8.847264e-07)
(2.55654 0.07227535 0 0.00149097 0 -1.111275e-06)
(2.411785 0.07245452 0 0.001809691 0 -1.212414e-06)
(2.269707 0.0726199 0 0.002166012 0 -1.232565e-06)
(2.130839 0.0727306 0 0.002559197 0 -1.202878e-06)
(1.99555 0.07274276 0 0.00298718 0 -1.14371e-06)
(1.864096 0.07261113 0 0.003446317 0 -1.068758e-06)
(1.736652 0.07229099 0 0.003931203 0 -9.874837e-07)
(1.613347 0.07174048 0 0.004434591 0 -9.057039e-07)
(1.494289 0.07092295 0 0.004947436 0 -8.262996e-07)
(1.379572 0.06980879 0 0.005459068 0 -7.514739e-07)
(1.269292 0.06837729 0 0.005957503 0 -6.813894e-07)
(1.163547 0.06661784 0 0.006429895 0 -6.162382e-07)
(1.062435 0.06453054 0 0.006863084 0 -5.559138e-07)
(0.9660585 0.06212658 0 0.007244238 0 -5.002401e-07)
(0.8745205 0.05942777 0 0.007561526 0 -4.489379e-07)
(0.7879235 0.05646597 0 0.007804836 0 -4.020288e-07)
(0.7063709 0.05328218 0 0.007966435 0 -3.594435e-07)
(0.6299635 0.04992482 0 0.008041462 0 -3.204252e-07)
(0.5587948 0.04644812 0 0.008028299 0 -2.849626e-07)
(0.4929436 0.04290992 0 0.007928819 0 -2.523396e-07)
(0.4324647 0.03936968 0 0.007748413 0 -2.223226e-07)
(0.3773721 0.03588544 0 0.007495723 0 -1.947306e-07)
(0.3276273 0.03251123 0 0.00718209 0 -1.685553e-07)
(0.283124 0.02929424 0 0.006820726 0 -1.442217e-07)
(0.2436791 0.02627231 0 0.006425666 0 -1.214813e-07)
(0.2090321 0.02347248 0 0.006010694 0 -1.007255e-07)
(0.1788528 0.02091032 0 0.005588357 0 -8.187891e-08)
(0.1527569 0.01859058 0 0.005169245 0 -6.564994e-08)
(0.1303269 0.01650869 0 0.004761605 0 -5.164956e-08)
(0.111135 0.01465289 0 0.004371298 0 -3.980452e-08)
(0.09476336 0.01300665 0 0.00400202 0 -3.022994e-08)
(0.08082028 0.01155074 0 0.003655674 0 -2.303378e-08)
(0.06894993 0.01026504 0 0.003332803 0 -1.721404e-08)
(0.05883757 0.009129785 0 0.003032995 0 -1.257977e-08)
(0.05021021 0.008126392 0 0.00275522 0 -9.328517e-09)
(0.04283462 0.007237902 0 0.002498094 0 -6.665122e-09)
(0.03651372 0.00644916 0 0.002260072 0 -4.943095e-09)
(0.03108246 0.005746838 0 0.002039561 0 -3.453383e-09)
(0.02640327 0.005119335 0 0.001835021 0 -2.532027e-09)
(0.02236211 0.004556647 0 0.001645009 0 -1.955666e-09)
(0.01886482 0.004050223 0 0.001468214 0 -1.167896e-09)
(0.01583384 0.003592815 0 0.001303477 0 -7.606109e-10)
(0.0132055 0.003178333 0 0.001149797 0 -2.112634e-10)
(0.01092763 0.002801724 0 0.001006349 0 -1.172318e-10)
(0.008957426 0.002458863 0 0.0008724862 0 7.741207e-11)
(0.007259626 0.002146432 0 0.0007477493 0 -2.777215e-11)
(0.005804768 0.001861794 0 0.0006318533 0 -3.497852e-10)
(0.004567905 0.001602911 0 0.0005247597 0 -8.53973e-10)
(0.003527022 0.001368135 0 0.0004266355 0 -1.893658e-09)
(0.0026585 0.001155243 0 0.0003369181 0 -2.558685e-09)
(0.001944444 0.0009623599 0 0.000257471 0 -2.455733e-09)
(0.001357766 0.0007851988 0 0.0001851309 0 -1.779275e-09)
(0.0009078204 0.0006252733 0 0.0001329791 0 1.129578e-09)
(0.0005063741 0.0004697159 0 6.08262e-05 0 5.156452e-09)
(0.0003718143 0.0003414335 0 9.692481e-05 0 -2.242747e-09)
(-5.074497e-05 0.0001901441 0 -7.425336e-05 0 -1.074153e-10)
(9.758515e-05 6.776469e-05 0 5.325635e-05 0 7.268599e-10)
(3.917443 0.07396625 0 6.818296e-06 0 3.702657e-06)
(3.914075 0.07394426 0 7.284523e-06 0 3.71766e-06)
(3.906751 0.07389379 0 8.393599e-06 0 3.763129e-06)
(3.895198 0.07382279 0 1.059035e-05 0 3.884824e-06)
(3.878511 0.07372738 0 1.446564e-05 0 4.055051e-06)
(3.85541 0.07360238 0 2.091107e-05 0 4.214296e-06)
(3.824583 0.07344703 0 3.12326e-05 0 4.316656e-06)
(3.785006 0.07327002 0 4.719694e-05 0 4.37829e-06)
(3.736029 0.07309087 0 7.10188e-05 0 4.497649e-06)
(3.676933 0.07293372 0 0.000105373 0 4.801478e-06)
(3.605425 0.0728023 0 0.0001535496 0 5.201939e-06)
(3.516382 0.07264951 0 0.0002202003 0 5.11243e-06)
(3.406632 0.07244044 0 0.0003116771 0 4.117708e-06)
(3.279508 0.0722187 0 0.0004295528 0 2.608458e-06)
(3.141596 0.0720593 0 0.0005762292 0 1.238717e-06)
(2.9976 0.07199137 0 0.0007538443 0 2.139753e-07)
(2.850741 0.07201605 0 0.000964347 0 -4.692831e-07)
(2.703215 0.07211882 0 0.001209542 0 -8.847264e-07)
(2.55654 0.07227535 0 0.00149097 0 -1.111275e-06)
(2.411785 0.07245452 0 0.001809691 0 -1.212414e-06)
(2.269707 0.0726199 0 0.002166012 0 -1.232565e-06)
(2.130839 0.0727306 0 0.002559197 0 -1.202878e-06)
(1.99555 0.07274276 0 0.00298718 0 -1.14371e-06)
(1.864096 0.07261113 0 0.003446317 0 -1.068758e-06)
(1.736652 0.07229099 0 0.003931203 0 -9.874837e-07)
(1.613347 0.07174048 0 0.004434591 0 -9.057039e-07)
(1.494289 0.07092295 0 0.004947436 0 -8.262996e-07)
(1.379572 0.06980879 0 0.005459068 0 -7.514739e-07)
(1.269292 0.06837729 0 0.005957503 0 -6.813894e-07)
(1.163547 0.06661784 0 0.006429895 0 -6.162382e-07)
(1.062435 0.06453054 0 0.006863084 0 -5.559138e-07)
(0.9660585 0.06212658 0 0.007244238 0 -5.002401e-07)
(0.8745205 0.05942777 0 0.007561526 0 -4.489379e-07)
(0.7879235 0.05646597 0 0.007804836 0 -4.020288e-07)
(0.7063709 0.05328218 0 0.007966435 0 -3.594435e-07)
(0.6299635 0.04992482 0 0.008041462 0 -3.204252e-07)
(0.5587948 0.04644812 0 0.008028299 0 -2.849626e-07)
(0.4929436 0.04290992 0 0.007928819 0 -2.523396e-07)
(0.4324647 0.03936968 0 0.007748413 0 -2.223226e-07)
(0.3773721 0.03588544 0 0.007495723 0 -1.947306e-07)
(0.3276273 0.03251123 0 0.00718209 0 -1.685553e-07)
(0.283124 0.02929424 0 0.006820726 0 -1.442217e-07)
(0.2436791 0.02627231 0 0.006425666 0 -1.214813e-07)
(0.2090321 0.02347248 0 0.006010694 0 -1.007255e-07)
(0.1788528 0.02091032 0 0.005588357 0 -8.187891e-08)
(0.1527569 0.01859058 0 0.005169245 0 -6.564994e-08)
(0.1303269 0.01650869 0 0.004761605 0 -5.164956e-08)
(0.111135 0.01465289 0 0.004371298 0 -3.980452e-08)
(0.09476336 0.01300665 0 0.00400202 0 -3.022994e-08)
(0.08082028 0.01155074 0 0.003655674 0 -2.303378e-08)
(0.06894993 0.01026504 0 0.003332803 0 -1.721404e-08)
(0.05883757 0.009129785 0 0.003032995 0 -1.257977e-08)
(0.05021021 0.008126392 0 0.00275522 0 -9.328517e-09)
(0.04283462 0.007237902 0 0.002498094 0 -6.665122e-09)
(0.03651372 0.00644916 0 0.002260072 0 -4.943095e-09)
(0.03108246 0.005746838 0 0.002039561 0 -3.453383e-09)
(0.02640327 0.005119335 0 0.001835021 0 -2.532027e-09)
(0.02236211 0.004556647 0 0.001645009 0 -1.955666e-09)
(0.01886482 0.004050223 0 0.001468214 0 -1.167896e-09)
(0.01583384 0.003592815 0 0.001303477 0 -7.606109e-10)
(0.0132055 0.003178333 0 0.001149797 0 -2.112634e-10)
(0.01092763 0.002801724 0 0.001006349 0 -1.172318e-10)
(0.008957426 0.002458863 0 0.0008724862 0 7.741207e-11)
(0.007259626 0.002146432 0 0.0007477493 0 -2.777215e-11)
(0.005804768 0.001861794 0 0.0006318533 0 -3.497852e-10)
(0.004567905 0.001602911 0 0.0005247597 0 -8.53973e-10)
(0.003527022 0.001368135 0 0.0004266355 0 -1.893658e-09)
(0.0026585 0.001155243 0 0.0003369181 0 -2.558685e-09)
(0.001944444 0.0009623599 0 0.000257471 0 -2.455733e-09)
(0.001357766 0.0007851988 0 0.0001851309 0 -1.779275e-09)
(0.0009078204 0.0006252733 0 0.0001329791 0 1.129578e-09)
(0.0005063741 0.0004697159 0 6.08262e-05 0 5.156452e-09)
(0.0003718143 0.0003414335 0 9.692481e-05 0 -2.242747e-09)
(-5.074497e-05 0.0001901441 0 -7.425336e-05 0 -1.074153e-10)
(9.758515e-05 6.776469e-05 0 5.325635e-05 0 7.268599e-10)
)
;
    }
    wall
    {
        type            calculated;
        value           nonuniform List<symmTensor> 2((3.917044 0.07395845 0 6.753884e-06 0 3.621636e-06) (3.917842 0.07397405 0 6.882711e-06 0 3.783683e-06));
    }
    frontAndBack
    {
        type            empty;
    }
    middle
    {
        type            symmetryPlane;
        value           nonuniform List<symmTensor> 2((9.758709e-05 0 0 5.325882e-05 0 2.649999e-09) (9.758321e-05 0 0 5.325388e-05 0 -1.19628e-09));
    }
}


// ************************************************************************* //
