/*--------------------------------*- C++ -*----------------------------------*\
| =========                 |                                                 |
| \\      /  F ield         | foam-extend: Open Source CFD                    |
|  \\    /   O peration     | Version:     4.0                                |
|   \\  /    A nd           | Web:         http://www.foam-extend.org         |
|    \\/     M anipulation  |                                                 |
\*---------------------------------------------------------------------------*/
FoamFile
{
    version     2.0;
    format      ascii;
    class       volScalarField;
    location    "100";
    object      trC;
}
// * * * * * * * * * * * * * * * * * * * * * * * * * * * * * * * * * * * * * //

dimensions      [0 0 0 0 0 0 0];

internalField   nonuniform List<scalar> 
150
(
1015.401
1015.55
1014.833
1014.867
1013.487
1013.491
1011.338
1011.339
1008.226
1008.228
1003.905
1003.908
998.1183
998.1217
990.6513
990.6545
981.3525
981.3549
970.0448
970.0465
956.232
956.2329
938.8291
938.8294
917.0628
917.0625
891.4037
891.403
863.0103
863.0094
832.7271
832.7262
801.1499
801.1491
768.7031
768.7023
735.6976
735.697
702.3703
702.3699
668.9069
668.9067
635.4552
635.455
602.1344
602.1344
569.0436
569.0436
536.2676
536.2678
503.8837
503.8839
471.9659
471.9661
440.5881
440.5884
409.8265
409.8267
379.7603
379.7604
350.4711
350.4714
322.0441
322.0443
294.5662
294.5662
268.1264
268.1265
242.816
242.8161
218.7268
218.7269
195.9493
195.9494
174.5703
174.5703
154.6679
154.668
136.3063
136.3064
119.5293
119.5294
104.3543
104.3544
90.76751
90.76755
78.72247
78.72251
68.14195
68.142
58.92284
58.92286
50.94365
50.94367
44.07316
44.07318
38.17844
38.17847
33.13144
33.13147
28.8135
28.81351
25.11799
25.118
21.95128
21.95129
19.23258
19.23259
16.89305
16.89307
14.87466
14.87466
13.12871
13.12871
11.61468
11.61468
10.29895
10.29895
9.153746
9.153747
8.156199
8.1562
7.287535
7.287536
6.532347
6.532347
5.877949
5.877948
5.313763
5.313764
4.830898
4.8309
4.421567
4.421569
4.077127
4.07713
3.791853
3.791855
3.554893
3.554894
3.374338
3.374336
3.204015
3.204009
3.168602
3.168592
3
3
3.054259
3.054255
)
;

boundaryField
{
    leftandright
    {
        type            cyclic;
        value           nonuniform List<scalar> 
150
(
1015.475
1014.85
1013.489
1011.339
1008.227
1003.907
998.12
990.6529
981.3537
970.0457
956.2325
938.8293
917.0627
891.4034
863.0099
832.7266
801.1495
768.7027
735.6973
702.3701
668.9068
635.4551
602.1344
569.0436
536.2677
503.8838
471.966
440.5882
409.8266
379.7603
350.4712
322.0442
294.5662
268.1265
242.8161
218.7268
195.9493
174.5703
154.6679
136.3064
119.5294
104.3544
90.76753
78.72249
68.14198
58.92285
50.94366
44.07317
38.17846
33.13146
28.81351
25.11799
21.95129
19.23259
16.89306
14.87466
13.12871
11.61468
10.29895
9.153746
8.1562
7.287536
6.532347
5.877948
5.313763
4.830899
4.421568
4.077128
3.791854
3.554894
3.374337
3.204012
3.168597
3
3.054257
1015.475
1014.85
1013.489
1011.339
1008.227
1003.907
998.12
990.6529
981.3537
970.0457
956.2325
938.8293
917.0627
891.4034
863.0099
832.7266
801.1495
768.7027
735.6973
702.3701
668.9068
635.4551
602.1344
569.0436
536.2677
503.8838
471.966
440.5882
409.8266
379.7603
350.4712
322.0442
294.5662
268.1265
242.8161
218.7268
195.9493
174.5703
154.6679
136.3064
119.5294
104.3544
90.76753
78.72249
68.14198
58.92285
50.94366
44.07317
38.17846
33.13146
28.81351
25.11799
21.95129
19.23259
16.89306
14.87466
13.12871
11.61468
10.29895
9.153746
8.1562
7.287536
6.532347
5.877948
5.313763
4.830899
4.421568
4.077128
3.791854
3.554894
3.374337
3.204012
3.168597
3
3.054257
)
;
    }
    wall
    {
        type            calculated;
        value           nonuniform List<scalar> 2(1015.401 1015.55);
    }
    frontAndBack
    {
        type            empty;
    }
    middle
    {
        type            symmetryPlane;
        value           nonuniform List<scalar> 2(3.054259 3.054255);
    }
}


// ************************************************************************* //
