/*--------------------------------*- C++ -*----------------------------------*\
| =========                 |                                                 |
| \\      /  F ield         | foam-extend: Open Source CFD                    |
|  \\    /   O peration     | Version:     4.0                                |
|   \\  /    A nd           | Web:         http://www.foam-extend.org         |
|    \\/     M anipulation  |                                                 |
\*---------------------------------------------------------------------------*/
FoamFile
{
    version     2.0;
    format      ascii;
    class       volVectorField;
    location    "100";
    object      U;
}
// * * * * * * * * * * * * * * * * * * * * * * * * * * * * * * * * * * * * * //

dimensions      [0 1 -1 0 0 0 0];

internalField   nonuniform List<vector> 
150
(
(0.1920796 1.024227e-06 0)
(0.192077 1.020939e-06 0)
(0.5855177 2.777367e-06 0)
(0.5855125 2.773943e-06 0)
(0.9984137 3.831286e-06 0)
(0.9984089 3.832654e-06 0)
(1.431505 4.625186e-06 0)
(1.431501 4.625596e-06 0)
(1.885319 5.035161e-06 0)
(1.885316 5.034493e-06 0)
(2.360072 4.978168e-06 0)
(2.36007 4.97735e-06 0)
(2.855583 4.453778e-06 0)
(2.855581 4.453096e-06 0)
(3.371245 3.57751e-06 0)
(3.371243 3.576891e-06 0)
(3.906069 2.511807e-06 0)
(3.906068 2.511181e-06 0)
(4.458806 1.014643e-06 0)
(4.458805 1.013988e-06 0)
(5.028102 -1.85127e-06 0)
(5.028101 -1.851957e-06 0)
(5.611642 -4.969832e-06 0)
(5.611642 -4.970534e-06 0)
(6.203268 -6.068104e-06 0)
(6.203268 -6.06884e-06 0)
(6.796316 -6.309027e-06 0)
(6.796316 -6.30979e-06 0)
(7.386796 -6.893726e-06 0)
(7.386796 -6.894508e-06 0)
(7.971116 -7.250312e-06 0)
(7.971116 -7.251077e-06 0)
(8.546143 -7.25741e-06 0)
(8.546143 -7.258188e-06 0)
(9.109227 -6.944718e-06 0)
(9.109227 -6.945528e-06 0)
(9.658207 -6.377743e-06 0)
(9.658207 -6.378528e-06 0)
(10.1914 -5.626523e-06 0)
(10.1914 -5.627285e-06 0)
(10.70759 -4.763071e-06 0)
(10.70759 -4.763808e-06 0)
(11.20597 -3.854607e-06 0)
(11.20597 -3.855295e-06 0)
(11.68615 -2.957051e-06 0)
(11.68614 -2.957673e-06 0)
(12.14804 -2.112338e-06 0)
(12.14804 -2.113015e-06 0)
(12.59186 -1.348409e-06 0)
(12.59186 -1.348933e-06 0)
(13.01807 -6.799737e-07 0)
(13.01807 -6.803533e-07 0)
(13.42729 -1.116983e-07 0)
(13.42729 -1.121092e-07 0)
(13.82029 3.588185e-07 0)
(13.82029 3.584906e-07 0)
(14.19794 7.397583e-07 0)
(14.19794 7.395167e-07 0)
(14.56115 1.042937e-06 0)
(14.56115 1.042692e-06 0)
(14.91087 1.282653e-06 0)
(14.91087 1.282523e-06 0)
(15.24805 1.475524e-06 0)
(15.24805 1.475488e-06 0)
(15.57361 1.630528e-06 0)
(15.57361 1.630454e-06 0)
(15.88844 1.722362e-06 0)
(15.88844 1.722355e-06 0)
(16.19337 1.742575e-06 0)
(16.19337 1.742508e-06 0)
(16.48918 1.722194e-06 0)
(16.48918 1.722205e-06 0)
(16.77659 1.683726e-06 0)
(16.77659 1.683877e-06 0)
(17.05626 1.642663e-06 0)
(17.05626 1.642633e-06 0)
(17.32877 1.609312e-06 0)
(17.32877 1.609305e-06 0)
(17.59466 1.590725e-06 0)
(17.59466 1.590914e-06 0)
(17.85438 1.591018e-06 0)
(17.85438 1.591158e-06 0)
(18.10836 1.610047e-06 0)
(18.10836 1.610126e-06 0)
(18.35697 1.644395e-06 0)
(18.35697 1.644529e-06 0)
(18.60052 1.688454e-06 0)
(18.60052 1.688666e-06 0)
(18.83928 1.735335e-06 0)
(18.83928 1.735569e-06 0)
(19.0735 1.778928e-06 0)
(19.0735 1.779132e-06 0)
(19.30339 1.814799e-06 0)
(19.30339 1.815054e-06 0)
(19.52912 1.84103e-06 0)
(19.52912 1.841328e-06 0)
(19.75083 1.857699e-06 0)
(19.75083 1.857887e-06 0)
(19.96863 1.865833e-06 0)
(19.96863 1.866049e-06 0)
(20.1826 1.867254e-06 0)
(20.1826 1.867442e-06 0)
(20.39279 1.863243e-06 0)
(20.39279 1.86335e-06 0)
(20.59919 1.854204e-06 0)
(20.59919 1.854365e-06 0)
(20.80177 1.839886e-06 0)
(20.80177 1.839982e-06 0)
(21.00045 1.818402e-06 0)
(21.00045 1.818445e-06 0)
(21.1951 1.786576e-06 0)
(21.1951 1.786636e-06 0)
(21.38553 1.73982e-06 0)
(21.38553 1.739892e-06 0)
(21.57147 1.671707e-06 0)
(21.57147 1.671733e-06 0)
(21.75262 1.574122e-06 0)
(21.75262 1.574099e-06 0)
(21.9286 1.436961e-06 0)
(21.9286 1.436961e-06 0)
(22.09893 1.24905e-06 0)
(22.09893 1.249038e-06 0)
(22.26311 9.974034e-07 0)
(22.26311 9.973882e-07 0)
(22.42053 6.745861e-07 0)
(22.42053 6.745671e-07 0)
(22.57057 2.576548e-07 0)
(22.57057 2.576621e-07 0)
(22.71255 -2.236105e-07 0)
(22.71255 -2.236294e-07 0)
(22.84579 -1.359787e-06 0)
(22.84579 -1.359831e-06 0)
(22.96962 -4.443932e-07 0)
(22.96962 -4.444037e-07 0)
(23.08342 7.593341e-06 0)
(23.08342 7.593331e-06 0)
(23.18656 -6.331324e-06 0)
(23.18656 -6.331344e-06 0)
(23.27827 4.469828e-05 0)
(23.27827 4.469825e-05 0)
(23.35771 -0.0001443102 0)
(23.35771 -0.0001443102 0)
(23.42392 0.0005011719 0)
(23.42392 0.0005011718 0)
(23.47584 -0.001716406 0)
(23.47584 -0.001716406 0)
(23.51223 0.00555646 0)
(23.51223 0.00555646 0)
(23.53151 -0.01091216 0)
(23.53151 -0.01091216 0)
)
;

boundaryField
{
    leftandright
    {
        type            cyclic;
        value           nonuniform List<vector> 
150
(
(0.1920783 1.022583e-06 0)
(0.5855151 2.775655e-06 0)
(0.9984113 3.83197e-06 0)
(1.431503 4.625391e-06 0)
(1.885317 5.034827e-06 0)
(2.360071 4.977759e-06 0)
(2.855582 4.453437e-06 0)
(3.371244 3.577201e-06 0)
(3.906069 2.511494e-06 0)
(4.458806 1.014316e-06 0)
(5.028102 -1.851613e-06 0)
(5.611642 -4.970183e-06 0)
(6.203268 -6.068472e-06 0)
(6.796316 -6.309408e-06 0)
(7.386796 -6.894117e-06 0)
(7.971116 -7.250695e-06 0)
(8.546143 -7.257799e-06 0)
(9.109227 -6.945123e-06 0)
(9.658207 -6.378136e-06 0)
(10.1914 -5.626904e-06 0)
(10.70759 -4.76344e-06 0)
(11.20597 -3.854951e-06 0)
(11.68614 -2.957362e-06 0)
(12.14804 -2.112676e-06 0)
(12.59186 -1.348671e-06 0)
(13.01807 -6.801635e-07 0)
(13.42729 -1.119038e-07 0)
(13.82029 3.586545e-07 0)
(14.19794 7.396375e-07 0)
(14.56115 1.042814e-06 0)
(14.91087 1.282588e-06 0)
(15.24805 1.475506e-06 0)
(15.57361 1.630491e-06 0)
(15.88844 1.722358e-06 0)
(16.19337 1.742541e-06 0)
(16.48918 1.722199e-06 0)
(16.77659 1.683801e-06 0)
(17.05626 1.642648e-06 0)
(17.32877 1.609309e-06 0)
(17.59466 1.59082e-06 0)
(17.85438 1.591088e-06 0)
(18.10836 1.610087e-06 0)
(18.35697 1.644462e-06 0)
(18.60052 1.68856e-06 0)
(18.83928 1.735452e-06 0)
(19.0735 1.77903e-06 0)
(19.30339 1.814927e-06 0)
(19.52912 1.841179e-06 0)
(19.75083 1.857793e-06 0)
(19.96863 1.865941e-06 0)
(20.1826 1.867348e-06 0)
(20.39279 1.863297e-06 0)
(20.59919 1.854284e-06 0)
(20.80177 1.839934e-06 0)
(21.00045 1.818423e-06 0)
(21.1951 1.786606e-06 0)
(21.38553 1.739856e-06 0)
(21.57147 1.67172e-06 0)
(21.75262 1.574111e-06 0)
(21.9286 1.436961e-06 0)
(22.09893 1.249044e-06 0)
(22.26311 9.973958e-07 0)
(22.42053 6.745766e-07 0)
(22.57057 2.576585e-07 0)
(22.71255 -2.2362e-07 0)
(22.84579 -1.359809e-06 0)
(22.96962 -4.443984e-07 0)
(23.08342 7.593336e-06 0)
(23.18656 -6.331334e-06 0)
(23.27827 4.469826e-05 0)
(23.35771 -0.0001443102 0)
(23.42392 0.0005011718 0)
(23.47584 -0.001716406 0)
(23.51223 0.00555646 0)
(23.53151 -0.01091216 0)
(0.1920783 1.022583e-06 0)
(0.5855151 2.775655e-06 0)
(0.9984113 3.83197e-06 0)
(1.431503 4.625391e-06 0)
(1.885317 5.034827e-06 0)
(2.360071 4.977759e-06 0)
(2.855582 4.453437e-06 0)
(3.371244 3.577201e-06 0)
(3.906069 2.511494e-06 0)
(4.458806 1.014316e-06 0)
(5.028102 -1.851613e-06 0)
(5.611642 -4.970183e-06 0)
(6.203268 -6.068472e-06 0)
(6.796316 -6.309408e-06 0)
(7.386796 -6.894117e-06 0)
(7.971116 -7.250695e-06 0)
(8.546143 -7.257799e-06 0)
(9.109227 -6.945123e-06 0)
(9.658207 -6.378136e-06 0)
(10.1914 -5.626904e-06 0)
(10.70759 -4.76344e-06 0)
(11.20597 -3.854951e-06 0)
(11.68614 -2.957362e-06 0)
(12.14804 -2.112676e-06 0)
(12.59186 -1.348671e-06 0)
(13.01807 -6.801635e-07 0)
(13.42729 -1.119038e-07 0)
(13.82029 3.586545e-07 0)
(14.19794 7.396375e-07 0)
(14.56115 1.042814e-06 0)
(14.91087 1.282588e-06 0)
(15.24805 1.475506e-06 0)
(15.57361 1.630491e-06 0)
(15.88844 1.722358e-06 0)
(16.19337 1.742541e-06 0)
(16.48918 1.722199e-06 0)
(16.77659 1.683801e-06 0)
(17.05626 1.642648e-06 0)
(17.32877 1.609309e-06 0)
(17.59466 1.59082e-06 0)
(17.85438 1.591088e-06 0)
(18.10836 1.610087e-06 0)
(18.35697 1.644462e-06 0)
(18.60052 1.68856e-06 0)
(18.83928 1.735452e-06 0)
(19.0735 1.77903e-06 0)
(19.30339 1.814927e-06 0)
(19.52912 1.841179e-06 0)
(19.75083 1.857793e-06 0)
(19.96863 1.865941e-06 0)
(20.1826 1.867348e-06 0)
(20.39279 1.863297e-06 0)
(20.59919 1.854284e-06 0)
(20.80177 1.839934e-06 0)
(21.00045 1.818423e-06 0)
(21.1951 1.786606e-06 0)
(21.38553 1.739856e-06 0)
(21.57147 1.67172e-06 0)
(21.75262 1.574111e-06 0)
(21.9286 1.436961e-06 0)
(22.09893 1.249044e-06 0)
(22.26311 9.973958e-07 0)
(22.42053 6.745766e-07 0)
(22.57057 2.576585e-07 0)
(22.71255 -2.2362e-07 0)
(22.84579 -1.359809e-06 0)
(22.96962 -4.443984e-07 0)
(23.08342 7.593336e-06 0)
(23.18656 -6.331334e-06 0)
(23.27827 4.469826e-05 0)
(23.35771 -0.0001443102 0)
(23.42392 0.0005011718 0)
(23.47584 -0.001716406 0)
(23.51223 0.00555646 0)
(23.53151 -0.01091216 0)
)
;
    }
    wall
    {
        type            fixedValue;
        value           uniform (0 0 0);
    }
    frontAndBack
    {
        type            empty;
    }
    middle
    {
        type            symmetryPlane;
        value           nonuniform List<vector> 2((23.53151 0 0) (23.53151 0 0));
    }
}


// ************************************************************************* //
