/*--------------------------------*- C++ -*----------------------------------*\
| =========                 |                                                 |
| \\      /  F ield         | foam-extend: Open Source CFD                    |
|  \\    /   O peration     | Version:     4.0                                |
|   \\  /    A nd           | Web:         http://www.foam-extend.org         |
|    \\/     M anipulation  |                                                 |
\*---------------------------------------------------------------------------*/
FoamFile
{
    version     2.0;
    format      ascii;
    class       volScalarField;
    location    "100";
    object      v2;
}
// * * * * * * * * * * * * * * * * * * * * * * * * * * * * * * * * * * * * * //

dimensions      [0 2 -2 0 0 0 0];

internalField   nonuniform List<scalar> 
150
(
3.31231e-07
3.312311e-07
1.635308e-05
1.635309e-05
0.0001013149
0.0001013149
0.0003438542
0.0003438543
0.0008594833
0.0008594835
0.001781687
0.001781688
0.003252768
0.003252769
0.00541506
0.005415061
0.008403558
0.008403559
0.01234111
0.01234111
0.01733699
0.01733699
0.02347824
0.02347824
0.03079072
0.03079073
0.0392608
0.03926081
0.04887891
0.04887892
0.05961594
0.05961595
0.07142483
0.07142484
0.08424261
0.08424262
0.09799309
0.09799311
0.1125899
0.1125899
0.1279396
0.1279396
0.1439443
0.1439443
0.1605046
0.1605046
0.177521
0.177521
0.1948956
0.1948957
0.2125334
0.2125335
0.2303425
0.2303425
0.2482345
0.2482346
0.2661253
0.2661254
0.2839347
0.2839347
0.3015867
0.3015868
0.31901
0.31901
0.3361382
0.3361382
0.3529108
0.3529108
0.3692734
0.3692734
0.3851763
0.3851763
0.4005724
0.4005725
0.4154168
0.4154168
0.4296657
0.4296657
0.4432763
0.4432763
0.4562065
0.4562065
0.4684149
0.4684149
0.4798612
0.4798612
0.4905058
0.4905058
0.5003105
0.5003105
0.5092392
0.5092392
0.5172576
0.5172576
0.5243344
0.5243344
0.5304415
0.5304415
0.5355548
0.5355548
0.5396549
0.5396549
0.542728
0.542728
0.5447666
0.5447666
0.5457706
0.5457705
0.545748
0.545748
0.5447159
0.5447159
0.5427011
0.5427011
0.5397399
0.5397399
0.5358783
0.5358783
0.53117
0.53117
0.5256734
0.5256734
0.5194471
0.5194471
0.5125416
0.5125416
0.5049882
0.5049882
0.4967835
0.4967835
0.4878683
0.4878683
0.4781
0.4781
0.4672158
0.4672158
0.4555068
0.4555068
0.4436853
0.4436853
0.4324187
0.4324187
0.4223282
0.4223282
0.4139852
0.4139852
0.4079198
0.4079198
0.4046266
0.4046266
)
;

boundaryField
{
    leftandright
    {
        type            cyclic;
        value           nonuniform List<scalar> 
150
(
3.31231e-07
1.635308e-05
0.0001013149
0.0003438542
0.0008594834
0.001781688
0.003252768
0.00541506
0.008403559
0.01234111
0.01733699
0.02347824
0.03079072
0.03926081
0.04887891
0.05961595
0.07142484
0.08424261
0.0979931
0.1125899
0.1279396
0.1439443
0.1605046
0.177521
0.1948957
0.2125334
0.2303425
0.2482345
0.2661254
0.2839347
0.3015868
0.31901
0.3361382
0.3529108
0.3692734
0.3851763
0.4005725
0.4154168
0.4296657
0.4432763
0.4562065
0.4684149
0.4798612
0.4905058
0.5003105
0.5092392
0.5172576
0.5243344
0.5304415
0.5355548
0.5396549
0.542728
0.5447666
0.5457705
0.545748
0.5447159
0.5427011
0.5397399
0.5358783
0.53117
0.5256734
0.5194471
0.5125416
0.5049882
0.4967835
0.4878683
0.4781
0.4672158
0.4555068
0.4436853
0.4324187
0.4223282
0.4139852
0.4079198
0.4046266
3.31231e-07
1.635308e-05
0.0001013149
0.0003438542
0.0008594834
0.001781688
0.003252768
0.00541506
0.008403559
0.01234111
0.01733699
0.02347824
0.03079072
0.03926081
0.04887891
0.05961595
0.07142484
0.08424261
0.0979931
0.1125899
0.1279396
0.1439443
0.1605046
0.177521
0.1948957
0.2125334
0.2303425
0.2482345
0.2661254
0.2839347
0.3015868
0.31901
0.3361382
0.3529108
0.3692734
0.3851763
0.4005725
0.4154168
0.4296657
0.4432763
0.4562065
0.4684149
0.4798612
0.4905058
0.5003105
0.5092392
0.5172576
0.5243344
0.5304415
0.5355548
0.5396549
0.542728
0.5447666
0.5457705
0.545748
0.5447159
0.5427011
0.5397399
0.5358783
0.53117
0.5256734
0.5194471
0.5125416
0.5049882
0.4967835
0.4878683
0.4781
0.4672158
0.4555068
0.4436853
0.4324187
0.4223282
0.4139852
0.4079198
0.4046266
)
;
    }
    wall
    {
        type            fixedValue;
        value           uniform 1e-10;
    }
    frontAndBack
    {
        type            empty;
    }
    middle
    {
        type            symmetryPlane;
        value           nonuniform List<scalar> 2(0.4046266 0.4046266);
    }
}


// ************************************************************************* //
