/*--------------------------------*- C++ -*----------------------------------*\
| =========                 |                                                 |
| \\      /  F ield         | foam-extend: Open Source CFD                    |
|  \\    /   O peration     | Version:     4.0                                |
|   \\  /    A nd           | Web:         http://www.foam-extend.org         |
|    \\/     M anipulation  |                                                 |
\*---------------------------------------------------------------------------*/
FoamFile
{
    version     2.0;
    format      ascii;
    class       volScalarField;
    location    "100";
    object      yPlus;
}
// * * * * * * * * * * * * * * * * * * * * * * * * * * * * * * * * * * * * * //

dimensions      [0 -1 1 0 0 0 0];

internalField   nonuniform List<scalar> 
150
(
0.1867964
0.1867964
0.5699369
0.5699369
0.9726609
0.9726609
1.395969
1.395969
1.840915
1.840915
2.308602
2.308602
2.800195
2.800195
3.316914
3.316914
3.860045
3.860045
4.430937
4.430937
5.031009
5.031009
5.661752
5.661752
6.324734
6.324734
7.021604
7.021604
7.754093
7.754093
8.524022
8.524022
9.333304
9.333304
10.18395
10.18395
11.07808
11.07808
12.01791
12.01791
13.00577
13.00577
14.04413
14.04413
15.13556
15.13556
16.28278
16.28278
17.48864
17.48864
18.75613
18.75613
20.08841
20.08841
21.48878
21.48878
22.96073
22.96073
24.50792
24.50792
26.13419
26.13419
27.84358
27.84358
29.64034
29.64034
31.52895
31.52895
33.51408
33.51408
35.60069
35.60069
37.79394
37.79394
40.0993
40.0993
42.52249
42.52249
45.06954
45.06954
47.74678
47.74678
50.56086
50.56086
53.51878
53.51878
56.62788
56.62788
59.89591
59.89591
63.33096
63.33096
66.9416
66.9416
70.73679
70.73679
74.72596
74.72596
78.91903
78.91903
83.32642
83.32642
87.95909
87.95909
92.82854
92.82854
97.94689
97.94689
103.3269
103.3269
108.9818
108.9818
114.9258
114.9258
121.1736
121.1736
127.7408
127.7408
134.6436
134.6436
141.8992
141.8992
149.5257
149.5257
157.5421
157.5421
165.9681
165.9681
174.8249
174.8249
184.1343
184.1343
193.9196
193.9196
204.205
204.205
215.0162
215.0162
226.3799
226.3799
238.3245
238.3245
250.8796
250.8796
264.0764
264.0764
277.9478
277.9478
292.5281
292.5281
)
;

boundaryField
{
    leftandright
    {
        type            cyclic;
        value           nonuniform List<scalar> 
150
(
7.502326
7.521624
7.562808
7.628809
7.722627
7.84727
8.005691
8.200727
8.435043
8.711096
9.031115
9.397097
9.810824
10.2739
10.78777
11.35381
11.97333
12.64764
13.37811
14.16616
15.01333
15.92129
16.89187
17.92704
19.02899
20.20006
21.44281
22.76
24.15461
25.62983
27.18907
28.836
30.5745
32.40871
34.34303
36.38212
38.53092
40.79466
43.17884
45.68932
48.33224
51.1141
54.04174
57.12239
60.36364
63.77351
67.36043
71.13328
75.10139
79.27461
83.66327
88.27826
93.13103
98.23362
103.5987
109.2396
115.1703
121.4055
127.9608
134.8523
142.0973
149.7137
157.7205
166.1375
174.9857
184.287
194.0646
204.3427
215.1469
226.5041
238.4425
250.9917
264.1829
278.0489
292.6243
7.502326
7.521624
7.562808
7.628809
7.722627
7.84727
8.005691
8.200727
8.435043
8.711096
9.031115
9.397097
9.810824
10.2739
10.78777
11.35381
11.97333
12.64764
13.37811
14.16616
15.01333
15.92129
16.89187
17.92704
19.02899
20.20006
21.44281
22.76
24.15461
25.62983
27.18907
28.836
30.5745
32.40871
34.34303
36.38212
38.53092
40.79466
43.17884
45.68932
48.33224
51.1141
54.04174
57.12239
60.36364
63.77351
67.36043
71.13328
75.10139
79.27461
83.66327
88.27826
93.13103
98.23362
103.5987
109.2396
115.1703
121.4055
127.9608
134.8523
142.0973
149.7137
157.7205
166.1375
174.9857
184.287
194.0646
204.3427
215.1469
226.5041
238.4425
250.9917
264.1829
278.0489
292.6243
)
;
    }
    wall
    {
        type            calculated;
        value           uniform 3e-13;
    }
    frontAndBack
    {
        type            empty;
    }
    middle
    {
        type            symmetryPlane;
        value           uniform 300;
    }
}


// ************************************************************************* //
