/*--------------------------------*- C++ -*----------------------------------*\
| =========                 |                                                 |
| \\      /  F ield         | foam-extend: Open Source CFD                    |
|  \\    /   O peration     | Version:     4.0                                |
|   \\  /    A nd           | Web:         http://www.foam-extend.org         |
|    \\/     M anipulation  |                                                 |
\*---------------------------------------------------------------------------*/
FoamFile
{
    version     2.0;
    format      ascii;
    class       volScalarField;
    location    "100";
    object      Ceps1;
}
// * * * * * * * * * * * * * * * * * * * * * * * * * * * * * * * * * * * * * //

dimensions      [0 0 0 0 0 0 0];

internalField   nonuniform List<scalar> 
150
(
11.64649
11.64649
6.175377
6.175377
4.4889
4.4889
3.68457
3.68457
3.216774
3.216774
2.912092
2.912092
2.698627
2.698627
2.541272
2.541272
2.420852
2.420852
2.326004
2.326004
2.249552
2.249552
2.186736
2.186736
2.134266
2.134266
2.089793
2.089793
2.051593
2.051593
2.018378
2.018378
1.989167
1.989167
1.963229
1.963229
1.940049
1.940049
1.919009
1.919009
1.899592
1.899592
1.881428
1.881428
1.864257
1.864257
1.847899
1.847899
1.832232
1.832232
1.817175
1.817175
1.802675
1.802675
1.788699
1.788699
1.775226
1.775226
1.762247
1.762247
1.749752
1.749752
1.737737
1.737737
1.726199
1.726199
1.715131
1.715131
1.704528
1.704528
1.694383
1.694383
1.684686
1.684686
1.675428
1.675428
1.666596
1.666596
1.658178
1.658178
1.650158
1.650158
1.642523
1.642523
1.635255
1.635255
1.62834
1.62834
1.62176
1.62176
1.615498
1.615498
1.609538
1.609538
1.603862
1.603862
1.598453
1.598453
1.593295
1.593295
1.58837
1.58837
1.58366
1.58366
1.579148
1.579148
1.574817
1.574817
1.570648
1.570648
1.566624
1.566624
1.562727
1.562727
1.558938
1.558938
1.555241
1.555241
1.551621
1.551621
1.548064
1.548064
1.544564
1.544564
1.541119
1.541119
1.537736
1.537736
1.534433
1.534433
1.531243
1.531243
1.528213
1.528213
1.52541
1.52541
1.522919
1.522919
1.52083
1.52083
1.519092
1.519092
1.517682
1.517682
1.516593
1.516593
1.515837
1.515837
1.515437
1.515437
)
;

boundaryField
{
    leftandright
    {
        type            cyclic;
        value           nonuniform List<scalar> 
150
(
11.64649
6.175377
4.4889
3.68457
3.216774
2.912092
2.698627
2.541272
2.420852
2.326004
2.249552
2.186736
2.134266
2.089793
2.051593
2.018378
1.989167
1.963229
1.940049
1.919009
1.899592
1.881428
1.864257
1.847899
1.832232
1.817175
1.802675
1.788699
1.775226
1.762247
1.749752
1.737737
1.726199
1.715131
1.704528
1.694383
1.684686
1.675428
1.666596
1.658178
1.650158
1.642523
1.635255
1.62834
1.62176
1.615498
1.609538
1.603862
1.598453
1.593295
1.58837
1.58366
1.579148
1.574817
1.570648
1.566624
1.562727
1.558938
1.555241
1.551621
1.548064
1.544564
1.541119
1.537736
1.534433
1.531243
1.528213
1.52541
1.522919
1.52083
1.519092
1.517682
1.516593
1.515837
1.515437
11.64649
6.175377
4.4889
3.68457
3.216774
2.912092
2.698627
2.541272
2.420852
2.326004
2.249552
2.186736
2.134266
2.089793
2.051593
2.018378
1.989167
1.963229
1.940049
1.919009
1.899592
1.881428
1.864257
1.847899
1.832232
1.817175
1.802675
1.788699
1.775226
1.762247
1.749752
1.737737
1.726199
1.715131
1.704528
1.694383
1.684686
1.675428
1.666596
1.658178
1.650158
1.642523
1.635255
1.62834
1.62176
1.615498
1.609538
1.603862
1.598453
1.593295
1.58837
1.58366
1.579148
1.574817
1.570648
1.566624
1.562727
1.558938
1.555241
1.551621
1.548064
1.544564
1.541119
1.537736
1.534433
1.531243
1.528213
1.52541
1.522919
1.52083
1.519092
1.517682
1.516593
1.515837
1.515437
)
;
    }
    wall
    {
        type            calculated;
        value           uniform 1.463;
    }
    frontAndBack
    {
        type            empty;
    }
    middle
    {
        type            symmetryPlane;
        value           nonuniform List<scalar> 2(1.515437 1.515437);
    }
}


// ************************************************************************* //
