/*--------------------------------*- C++ -*----------------------------------*\
| =========                 |                                                 |
| \\      /  F ield         | foam-extend: Open Source CFD                    |
|  \\    /   O peration     | Version:     4.0                                |
|   \\  /    A nd           | Web:         http://www.foam-extend.org         |
|    \\/     M anipulation  |                                                 |
\*---------------------------------------------------------------------------*/
FoamFile
{
    version     2.0;
    format      ascii;
    class       volScalarField;
    location    "100";
    object      epsilonV;
}
// * * * * * * * * * * * * * * * * * * * * * * * * * * * * * * * * * * * * * //

dimensions      [0 2 -3 0 0 0 0];

internalField   nonuniform List<scalar> 
150
(
8.747581e-08
8.747558e-08
4.559512e-06
4.5595e-06
3.034232e-05
3.034224e-05
0.0001112414
0.0001112412
0.0003008063
0.0003008057
0.0006743312
0.0006743299
0.001329073
0.00132907
0.002381573
0.002381569
0.003961049
0.003961044
0.006198414
0.006198407
0.009211794
0.009211786
0.01309116
0.01309115
0.01788611
0.0178861
0.023601
0.02360099
0.0301994
0.03019941
0.03761524
0.03761526
0.04573508
0.04573512
0.05526642
0.05526649
0.07007994
0.07008005
0.08608102
0.08608117
0.1032005
0.1032007
0.1212567
0.121257
0.1400735
0.1400738
0.1594892
0.1594895
0.1793593
0.1793597
0.1995542
0.1995546
0.2199548
0.2199552
0.2404473
0.2404478
0.2609181
0.2609185
0.2812481
0.2812486
0.3013078
0.3013083
0.3209532
0.3209538
0.340023
0.3400235
0.3583373
0.3583378
0.3756985
0.3756989
0.3918934
0.3918939
0.4066983
0.4066986
0.4198834
0.4198838
0.4312208
0.4312211
0.4404897
0.4404899
0.4474846
0.4474846
0.4520203
0.4520202
0.4539387
0.4539385
0.4531118
0.4531114
0.4494458
0.4494455
0.4428835
0.4428833
0.4334056
0.4334054
0.4210314
0.4210312
0.4058196
0.4058196
0.3878699
0.3878697
0.3673227
0.3673228
0.3443641
0.3443641
0.3192289
0.319229
0.2922106
0.2922109
0.2636731
0.2636734
0.2340697
0.23407
0.2039629
0.2039632
0.1740433
0.1740436
0.1451249
0.1451251
0.1180955
0.1180957
0.09379708
0.09379721
0.07285531
0.07285542
0.05553194
0.05553201
0.041694
0.04169404
0.03092045
0.03092049
0.02266696
0.02266697
0.01640392
0.01640393
0.0116727
0.01167271
0.008126381
0.008126392
0.005435904
0.005435909
0.003517151
0.003517146
0.001930605
0.001930596
0.001297238
0.001297235
7.016284e-06
7.018123e-06
0.0002432482
0.0002432479
)
;

boundaryField
{
    leftandright
    {
        type            cyclic;
        value           nonuniform List<scalar> 
150
(
8.747569e-08
4.559506e-06
3.034228e-05
0.0001112413
0.000300806
0.0006743305
0.001329071
0.002381571
0.003961047
0.00619841
0.00921179
0.01309115
0.0178861
0.02360099
0.03019941
0.03761525
0.0457351
0.05526646
0.07007999
0.08608109
0.1032006
0.1212569
0.1400736
0.1594893
0.1793595
0.1995544
0.219955
0.2404475
0.2609183
0.2812483
0.301308
0.3209535
0.3400232
0.3583376
0.3756987
0.3918936
0.4066984
0.4198836
0.4312209
0.4404898
0.4474846
0.4520202
0.4539386
0.4531116
0.4494456
0.4428834
0.4334055
0.4210313
0.4058196
0.3878698
0.3673228
0.3443641
0.319229
0.2922108
0.2636732
0.2340698
0.203963
0.1740434
0.145125
0.1180956
0.09379715
0.07285537
0.05553197
0.04169402
0.03092047
0.02266696
0.01640393
0.01167271
0.008126387
0.005435907
0.003517149
0.001930601
0.001297237
7.017203e-06
0.0002432481
8.747569e-08
4.559506e-06
3.034228e-05
0.0001112413
0.000300806
0.0006743305
0.001329071
0.002381571
0.003961047
0.00619841
0.00921179
0.01309115
0.0178861
0.02360099
0.03019941
0.03761525
0.0457351
0.05526646
0.07007999
0.08608109
0.1032006
0.1212569
0.1400736
0.1594893
0.1793595
0.1995544
0.219955
0.2404475
0.2609183
0.2812483
0.301308
0.3209535
0.3400232
0.3583376
0.3756987
0.3918936
0.4066984
0.4198836
0.4312209
0.4404898
0.4474846
0.4520202
0.4539386
0.4531116
0.4494456
0.4428834
0.4334055
0.4210313
0.4058196
0.3878698
0.3673228
0.3443641
0.319229
0.2922108
0.2636732
0.2340698
0.203963
0.1740434
0.145125
0.1180956
0.09379715
0.07285537
0.05553197
0.04169402
0.03092047
0.02266696
0.01640393
0.01167271
0.008126387
0.005435907
0.003517149
0.001930601
0.001297237
7.017203e-06
0.0002432481
)
;
    }
    wall
    {
        type            calculated;
        value           nonuniform List<scalar> 2(3.499641e-10 3.499632e-10);
    }
    frontAndBack
    {
        type            empty;
    }
    middle
    {
        type            symmetryPlane;
        value           nonuniform List<scalar> 2(0.0002432482 0.0002432479);
    }
}


// ************************************************************************* //
