/*--------------------------------*- C++ -*----------------------------------*\
| =========                 |                                                 |
| \\      /  F ield         | foam-extend: Open Source CFD                    |
|  \\    /   O peration     | Version:     4.0                                |
|   \\  /    A nd           | Web:         http://www.foam-extend.org         |
|    \\/     M anipulation  |                                                 |
\*---------------------------------------------------------------------------*/
FoamFile
{
    version     2.0;
    format      ascii;
    class       volScalarField;
    location    "100";
    object      EtauP;
}
// * * * * * * * * * * * * * * * * * * * * * * * * * * * * * * * * * * * * * //

dimensions      [0 2 -4 0 0 0 0];

internalField   nonuniform List<scalar> 
150
(
1.180218e-05
1.180215e-05
0.000316331
0.0003163301
0.001484444
0.00148444
0.004336387
0.004336377
0.009948348
0.009948326
0.01965088
0.01965084
0.03501125
0.03501119
0.05779475
0.05779467
0.08990161
0.0899015
0.1332802
0.13328
0.1898243
0.1898241
0.2612712
0.261271
0.349122
0.3491218
0.4546065
0.4546064
0.578704
0.5787041
0.7221841
0.7221844
0.8850423
0.8850431
1.06306
1.063062
1.248188
1.24819
1.436684
1.436687
1.628056
1.628059
1.819186
1.81919
2.006786
2.006791
2.187714
2.187719
2.359143
2.359148
2.518639
2.518644
2.664184
2.664189
2.794163
2.794169
2.907339
2.907344
3.002803
3.002809
3.07993
3.079936
3.138333
3.138339
3.17783
3.177835
3.198419
3.198423
3.200265
3.200268
3.1837
3.183703
3.149228
3.14923
3.097523
3.097526
3.029441
3.029443
2.946004
2.946006
2.848402
2.848402
2.737962
2.737962
2.616138
2.616138
2.48447
2.484468
2.344557
2.344555
2.198031
2.19803
2.046523
2.046523
1.891639
1.891638
1.734939
1.734939
1.577927
1.577926
1.422041
1.422042
1.268657
1.268658
1.119096
1.119096
0.9746445
0.9746454
0.8365822
0.836583
0.7062187
0.7062194
0.5849185
0.5849192
0.4741103
0.4741113
0.3752221
0.3752227
0.289507
0.2895074
0.2177476
0.2177479
0.1599291
0.1599294
0.1150777
0.1150778
0.08141829
0.08141837
0.05679224
0.0567923
0.03908942
0.03908944
0.02652024
0.02652026
0.01767356
0.01767358
0.0115209
0.01152091
0.007223205
0.007223212
0.004392158
0.004392152
0.0022773
0.002277289
0.00145741
0.001457407
7.59919e-06
7.601181e-06
0.0002581529
0.0002581526
)
;

boundaryField
{
    leftandright
    {
        type            cyclic;
        value           nonuniform List<scalar> 
150
(
1.180216e-05
0.0003163305
0.001484442
0.004336382
0.009948337
0.01965086
0.03501122
0.05779471
0.08990156
0.1332801
0.1898242
0.2612711
0.3491219
0.4546064
0.578704
0.7221843
0.8850427
1.063061
1.248189
1.436686
1.628057
1.819188
2.006788
2.187717
2.359146
2.518642
2.664186
2.794166
2.907342
3.002806
3.079933
3.138336
3.177833
3.198421
3.200267
3.183702
3.149229
3.097524
3.029442
2.946005
2.848402
2.737962
2.616138
2.484469
2.344556
2.198031
2.046523
1.891639
1.734939
1.577927
1.422042
1.268658
1.119096
0.9746449
0.8365826
0.7062191
0.5849188
0.4741108
0.3752224
0.2895072
0.2177477
0.1599293
0.1150778
0.08141833
0.05679227
0.03908943
0.02652025
0.01767357
0.0115209
0.007223208
0.004392155
0.002277295
0.001457409
7.600185e-06
0.0002581528
1.180216e-05
0.0003163305
0.001484442
0.004336382
0.009948337
0.01965086
0.03501122
0.05779471
0.08990156
0.1332801
0.1898242
0.2612711
0.3491219
0.4546064
0.578704
0.7221843
0.8850427
1.063061
1.248189
1.436686
1.628057
1.819188
2.006788
2.187717
2.359146
2.518642
2.664186
2.794166
2.907342
3.002806
3.079933
3.138336
3.177833
3.198421
3.200267
3.183702
3.149229
3.097524
3.029442
2.946005
2.848402
2.737962
2.616138
2.484469
2.344556
2.198031
2.046523
1.891639
1.734939
1.577927
1.422042
1.268658
1.119096
0.9746449
0.8365826
0.7062191
0.5849188
0.4741108
0.3752224
0.2895072
0.2177477
0.1599293
0.1150778
0.08141833
0.05679227
0.03908943
0.02652025
0.01767357
0.0115209
0.007223208
0.004392155
0.002277295
0.001457409
7.600185e-06
0.0002581528
)
;
    }
    wall
    {
        type            calculated;
        value           nonuniform List<scalar> 2(6.026742e-09 6.026726e-09);
    }
    frontAndBack
    {
        type            empty;
    }
    middle
    {
        type            symmetryPlane;
        value           nonuniform List<scalar> 2(0.0002581529 0.0002581526);
    }
}


// ************************************************************************* //
