/*--------------------------------*- C++ -*----------------------------------*\
| =========                 |                                                 |
| \\      /  F ield         | foam-extend: Open Source CFD                    |
|  \\    /   O peration     | Version:     4.0                                |
|   \\  /    A nd           | Web:         http://www.foam-extend.org         |
|    \\/     M anipulation  |                                                 |
\*---------------------------------------------------------------------------*/
FoamFile
{
    version     2.0;
    format      ascii;
    class       volScalarField;
    location    "100";
    object      eVyy;
}
// * * * * * * * * * * * * * * * * * * * * * * * * * * * * * * * * * * * * * //

dimensions      [0 2 -3 0 0 0 0];

internalField   nonuniform List<scalar> 
150
(
2.149473e-12
2.149468e-12
5.158191e-10
5.158177e-10
8.204183e-09
8.204163e-09
5.4986e-08
5.498588e-08
2.351145e-07
2.351141e-07
7.608716e-07
7.608703e-07
2.033173e-06
2.03317e-06
4.717155e-06
4.717149e-06
9.805702e-06
9.805691e-06
1.864874e-05
1.864872e-05
3.292749e-05
3.292747e-05
5.456502e-05
5.456498e-05
8.55861e-05
8.558607e-05
0.000127964
0.000127964
0.0001835017
0.0001835018
0.0002537759
0.0002537761
0.000339912
0.0003399123
0.0004494541
0.0004494547
0.0006198996
0.0006199006
0.0008244255
0.000824427
0.001066708
0.00106671
0.001349703
0.001349705
0.001676616
0.00167662
0.002050997
0.002051002
0.00247676
0.002476765
0.00295814
0.002958146
0.003499605
0.003499613
0.004105712
0.004105721
0.004780922
0.004780931
0.005529363
0.005529374
0.006354544
0.006354556
0.007259016
0.00725903
0.008244011
0.008244024
0.009309044
0.009309056
0.01045153
0.01045154
0.01166643
0.01166644
0.01294595
0.01294596
0.0142793
0.01427931
0.01565258
0.01565259
0.01704875
0.01704876
0.01844773
0.01844773
0.01982658
0.01982657
0.02115987
0.02115986
0.02242005
0.02242004
0.02357799
0.02357798
0.02460355
0.02460354
0.02546622
0.02546621
0.02613585
0.02613584
0.02658339
0.02658338
0.02678175
0.02678173
0.02670671
0.02670672
0.02633808
0.02633809
0.02566094
0.02566095
0.02466746
0.02466748
0.02335917
0.02335919
0.02175026
0.02175028
0.01987142
0.01987144
0.01777448
0.01777452
0.01553543
0.01553546
0.01325289
0.01325291
0.01103779
0.0110378
0.008993586
0.008993598
0.00719392
0.007193928
0.005669874
0.00566988
0.004413937
0.004413941
0.003394949
0.003394951
0.002574394
0.002574395
0.001914712
0.001914714
0.001387557
0.001387558
0.0009605461
0.000960547
0.0006397634
0.0006397624
0.0003596402
0.0003596386
0.0002461876
0.000246187
1.348987e-06
1.349341e-06
4.709236e-05
4.709231e-05
)
;

boundaryField
{
    leftandright
    {
        type            cyclic;
        value           nonuniform List<scalar> 
150
(
2.14947e-12
5.158184e-10
8.204173e-09
5.498594e-08
2.351143e-07
7.60871e-07
2.033171e-06
4.717152e-06
9.805696e-06
1.864873e-05
3.292748e-05
5.4565e-05
8.558609e-05
0.000127964
0.0001835017
0.000253776
0.0003399122
0.0004494544
0.0006199001
0.0008244262
0.001066709
0.001349704
0.001676618
0.002051
0.002476762
0.002958143
0.003499609
0.004105717
0.004780927
0.005529368
0.00635455
0.007259023
0.008244017
0.00930905
0.01045154
0.01166644
0.01294596
0.01427931
0.01565259
0.01704876
0.01844773
0.01982658
0.02115986
0.02242004
0.02357798
0.02460354
0.02546622
0.02613585
0.02658338
0.02678174
0.02670672
0.02633809
0.02566095
0.02466747
0.02335918
0.02175027
0.01987143
0.0177745
0.01553545
0.0132529
0.01103779
0.008993592
0.007193924
0.005669877
0.004413939
0.00339495
0.002574394
0.001914713
0.001387558
0.0009605466
0.0006397629
0.0003596394
0.0002461873
1.349164e-06
4.709234e-05
2.14947e-12
5.158184e-10
8.204173e-09
5.498594e-08
2.351143e-07
7.60871e-07
2.033171e-06
4.717152e-06
9.805696e-06
1.864873e-05
3.292748e-05
5.4565e-05
8.558609e-05
0.000127964
0.0001835017
0.000253776
0.0003399122
0.0004494544
0.0006199001
0.0008244262
0.001066709
0.001349704
0.001676618
0.002051
0.002476762
0.002958143
0.003499609
0.004105717
0.004780927
0.005529368
0.00635455
0.007259023
0.008244017
0.00930905
0.01045154
0.01166644
0.01294596
0.01427931
0.01565259
0.01704876
0.01844773
0.01982658
0.02115986
0.02242004
0.02357798
0.02460354
0.02546622
0.02613585
0.02658338
0.02678174
0.02670672
0.02633809
0.02566095
0.02466747
0.02335918
0.02175027
0.01987143
0.0177745
0.01553545
0.0132529
0.01103779
0.008993592
0.007193924
0.005669877
0.004413939
0.00339495
0.002574394
0.001914713
0.001387558
0.0009605466
0.0006397629
0.0003596394
0.0002461873
1.349164e-06
4.709234e-05
)
;
    }
    wall
    {
        type            calculated;
        value           nonuniform List<scalar> 2(2.274767e-10 2.274761e-10);
    }
    frontAndBack
    {
        type            empty;
    }
    middle
    {
        type            symmetryPlane;
        value           nonuniform List<scalar> 2(4.709236e-05 4.709231e-05);
    }
}


// ************************************************************************* //
