/*--------------------------------*- C++ -*----------------------------------*\
| =========                 |                                                 |
| \\      /  F ield         | foam-extend: Open Source CFD                    |
|  \\    /   O peration     | Version:     4.0                                |
|   \\  /    A nd           | Web:         http://www.foam-extend.org         |
|    \\/     M anipulation  |                                                 |
\*---------------------------------------------------------------------------*/
FoamFile
{
    version     2.0;
    format      ascii;
    class       volScalarField;
    location    "100";
    object      k;
}
// * * * * * * * * * * * * * * * * * * * * * * * * * * * * * * * * * * * * * //

dimensions      [0 2 -2 0 0 0 0];

internalField   nonuniform List<scalar> 
150
(
0.001074369
0.001074369
0.01181549
0.01181549
0.03197594
0.03197594
0.06238402
0.06238402
0.1039234
0.1039234
0.1575301
0.1575301
0.2241828
0.2241828
0.3048826
0.3048826
0.4006218
0.4006218
0.5123394
0.5123394
0.6408664
0.6408664
0.7868654
0.7868655
0.9507738
0.9507738
1.132759
1.132759
1.3327
1.3327
1.550189
1.550189
1.784571
1.784571
2.034784
2.034784
2.298029
2.298029
2.56914
2.56914
2.843516
2.843516
3.11636
3.11636
3.382905
3.382905
3.638624
3.638625
3.879421
3.879421
4.101772
4.101772
4.302832
4.302832
4.480487
4.480487
4.633365
4.633365
4.7608
4.7608
4.862772
4.862772
4.939817
4.939818
4.992932
4.992933
5.023467
5.023467
5.033027
5.033027
5.023378
5.023378
4.99637
4.99637
4.953864
4.953864
4.897683
4.897683
4.829566
4.829566
4.751144
4.751144
4.663916
4.663916
4.569241
4.569241
4.468334
4.468334
4.362266
4.362266
4.25197
4.25197
4.138248
4.138248
4.021782
4.021782
3.903142
3.903142
3.782798
3.782798
3.661134
3.661134
3.538458
3.538458
3.41501
3.41501
3.290984
3.290984
3.166533
3.166533
3.041787
3.041787
2.916873
2.916873
2.791934
2.791934
2.667152
2.667152
2.542782
2.542782
2.419178
2.419177
2.296824
2.296824
2.176358
2.176358
2.058573
2.058573
1.944409
1.944409
1.834915
1.834915
1.731206
1.731206
1.634403
1.634403
1.545577
1.545577
1.465732
1.465732
1.3959
1.3959
1.33721
1.33721
1.290874
1.290874
1.258236
1.258236
1.240862
1.240862
)
;

boundaryField
{
    leftandright
    {
        type            cyclic;
        value           nonuniform List<scalar> 
150
(
0.001074369
0.01181549
0.03197594
0.06238402
0.1039234
0.1575301
0.2241828
0.3048826
0.4006218
0.5123394
0.6408664
0.7868655
0.9507738
1.132759
1.3327
1.550189
1.784571
2.034784
2.298029
2.56914
2.843516
3.11636
3.382905
3.638624
3.879421
4.101772
4.302832
4.480487
4.633365
4.7608
4.862772
4.939818
4.992932
5.023467
5.033027
5.023378
4.99637
4.953864
4.897683
4.829566
4.751144
4.663916
4.569241
4.468334
4.362266
4.25197
4.138248
4.021782
3.903142
3.782798
3.661134
3.538458
3.41501
3.290984
3.166533
3.041787
2.916873
2.791934
2.667152
2.542782
2.419178
2.296824
2.176358
2.058573
1.944409
1.834915
1.731206
1.634403
1.545577
1.465732
1.3959
1.33721
1.290874
1.258236
1.240862
0.001074369
0.01181549
0.03197594
0.06238402
0.1039234
0.1575301
0.2241828
0.3048826
0.4006218
0.5123394
0.6408664
0.7868655
0.9507738
1.132759
1.3327
1.550189
1.784571
2.034784
2.298029
2.56914
2.843516
3.11636
3.382905
3.638624
3.879421
4.101772
4.302832
4.480487
4.633365
4.7608
4.862772
4.939818
4.992932
5.023467
5.033027
5.023378
4.99637
4.953864
4.897683
4.829566
4.751144
4.663916
4.569241
4.468334
4.362266
4.25197
4.138248
4.021782
3.903142
3.782798
3.661134
3.538458
3.41501
3.290984
3.166533
3.041787
2.916873
2.791934
2.667152
2.542782
2.419178
2.296824
2.176358
2.058573
1.944409
1.834915
1.731206
1.634403
1.545577
1.465732
1.3959
1.33721
1.290874
1.258236
1.240862
)
;
    }
    wall
    {
        type            fixedValue;
        value           uniform 1e-10;
    }
    frontAndBack
    {
        type            empty;
    }
    middle
    {
        type            symmetryPlane;
        value           nonuniform List<scalar> 2(1.240862 1.240862);
    }
}


// ************************************************************************* //
