/*--------------------------------*- C++ -*----------------------------------*\
| =========                 |                                                 |
| \\      /  F ield         | foam-extend: Open Source CFD                    |
|  \\    /   O peration     | Version:     4.0                                |
|   \\  /    A nd           | Web:         http://www.foam-extend.org         |
|    \\/     M anipulation  |                                                 |
\*---------------------------------------------------------------------------*/
FoamFile
{
    version     2.0;
    format      ascii;
    class       volSymmTensorField;
    location    "100";
    object      NLT;
}
// * * * * * * * * * * * * * * * * * * * * * * * * * * * * * * * * * * * * * //

dimensions      [0 0 -1 0 0 0 0];

internalField   nonuniform List<symmTensor> 
150
(
(3.907913e-05 0 0 9.602596e-10 0 0)
(3.907907e-05 0 0 9.602581e-10 0 0)
(0.002037436 0 0 2.304957e-07 0 0)
(0.002037433 0 0 2.304953e-07 0 0)
(0.01356433 0 0 3.667624e-06 0 0)
(0.01356431 0 0 3.667618e-06 0 0)
(0.04975717 0 0 2.459467e-05 0 0)
(0.04975708 0 0 2.459463e-05 0 0)
(0.134638 0 0 0.0001052349 0 0)
(0.1346378 0 0 0.0001052348 0 0)
(0.3020715 0 0 0.0003408377 0 0)
(0.3020711 0 0 0.0003408372 0 0)
(0.5959778 -2.299068e-20 0 0.0009117072 0 0)
(0.5959769 2.299064e-20 0 0.000911706 0 0)
(1.069335 0 0 0.002118019 0 0)
(1.069334 0 0 0.002118016 0 0)
(1.781528 0 0 0.004410227 0 0)
(1.781526 2.013204e-19 0 0.004410222 0 0)
(2.793832 0 0 0.008405602 0 0)
(2.793829 0 0 0.008405593 0 0)
(4.16333 0 0 0.01488179 0 0)
(4.163325 0 0 0.01488177 0 0)
(5.936284 1.94518e-18 0 0.0247429 0 0)
(5.936277 -1.945178e-18 0 0.02474288 0 0)
(8.142586 0 0 0.03896275 0 0)
(8.142579 0 0 0.03896271 0 0)
(10.79307 -4.164016e-18 0 0.05851973 0 0)
(10.79307 4.164013e-18 0 0.05851969 0 0)
(13.88086 0 0 0.08434472 0 0)
(13.88085 0 0 0.08434468 0 0)
(17.38651 7.554576e-18 0 0.1173002 0 0)
(17.38651 0 0 0.1173002 0 0)
(21.27428 0 0 0.1581145 0 0)
(21.27429 0 0 0.1581146 0 0)
(25.91105 -2.456694e-17 0 0.2107215 0 0)
(25.91106 0 0 0.2107215 0 0)
(33.18582 0 0 0.2935486 0 0)
(33.18584 0 0 0.2935488 0 0)
(41.24434 8.336458e-17 0 0.3950101 0 0)
(41.24437 -4.168233e-17 0 0.3950104 0 0)
(50.08065 0 0 0.5176466 0 0)
(50.08069 0 0 0.5176471 0 0)
(59.63636 -1.267995e-16 0 0.663809 0 0)
(59.63642 0 0 0.6638097 0 0)
(69.85338 -1.519463e-16 0 0.8361132 0 0)
(69.85345 0 0 0.8361141 0 0)
(80.6759 0 0 1.037475 0 0)
(80.67598 0 0 1.037476 0 0)
(92.05013 2.090789e-16 0 1.271113 0 0)
(92.05021 0 0 1.271114 0 0)
(103.9229 2.410713e-16 0 1.540525 0 0)
(103.923 0 0 1.540527 0 0)
(116.2397 5.506775e-16 0 1.84944 0 0)
(116.2398 0 0 1.849441 0 0)
(128.9431 0 0 2.201743 0 0)
(128.9432 0 0 2.201745 0 0)
(141.97 0 0 2.60138 0 0)
(141.9701 0 0 2.601382 0 0)
(155.25 0 0 3.052228 0 0)
(155.2501 0 0 3.052231 0 0)
(168.7033 -8.678742e-16 0 3.557931 0 0)
(168.7034 8.67875e-16 0 3.557934 0 0)
(182.2385 -9.565023e-16 0 4.121698 0 0)
(182.2387 0 0 4.121702 0 0)
(195.7516 3.143526e-15 0 4.746084 0 0)
(195.7517 0 0 4.746089 0 0)
(209.1247 0 0 5.43273 0 0)
(209.1248 0 0 5.432734 0 0)
(222.2263 -2.470741e-15 0 6.182096 0 0)
(222.2264 0 0 6.182099 0 0)
(234.912 0 0 6.993188 0 0)
(234.9122 0 0 6.993194 0 0)
(247.0266 -5.688894e-15 0 7.863308 0 0)
(247.0268 2.844448e-15 0 7.863312 0 0)
(258.4059 0 0 8.787805 0 0)
(258.406 0 0 8.787812 0 0)
(268.8803 0 0 9.759898 0 0)
(268.8805 0 0 9.759904 0 0)
(278.2784 0 0 10.77051 0 0)
(278.2785 0 0 10.77052 0 0)
(286.4304 0 0 11.80821 0 0)
(286.4305 0 0 11.80821 0 0)
(293.1721 0 0 12.85915 0 0)
(293.1721 0 0 12.85915 0 0)
(298.3485 0 0 13.9072 0 0)
(298.3485 0 0 13.9072 0 0)
(301.8168 1.524337e-14 0 14.93395 0 0)
(301.8167 0 0 14.93394 0 0)
(303.4494 7.729343e-15 0 15.919 0 0)
(303.4492 0 0 15.91899 0 0)
(303.1362 0 0 16.84015 0 0)
(303.1361 0 0 16.84015 0 0)
(300.7867 0 0 17.67375 0 0)
(300.7867 0 0 17.67375 0 0)
(296.3318 0 0 18.39503 0 0)
(296.3317 0 0 18.39502 0 0)
(289.725 -1.50981e-14 0 18.97856 0 0)
(289.7249 0 0 18.97855 0 0)
(280.9451 -1.468196e-14 0 19.39878 0 0)
(280.945 1.468195e-14 0 19.39877 0 0)
(269.9979 0 0 19.63058 0 0)
(269.998 0 0 19.63058 0 0)
(256.9209 0 0 19.65015 0 0)
(256.9209 0 0 19.65015 0 0)
(241.7882 0 0 19.43593 0 0)
(241.7882 0 0 19.43593 0 0)
(224.7204 0 0 18.97016 0 0)
(224.7206 0 0 18.97017 0 0)
(205.8988 0 0 18.24087 0 0)
(205.899 0 0 18.24088 0 0)
(185.5861 1.935563e-14 0 17.24506 0 0)
(185.5862 -1.935565e-14 0 17.24507 0 0)
(164.152 0 0 15.99277 0 0)
(164.1521 0 0 15.99279 0 0)
(142.1023 0 0 14.51245 0 0)
(142.1026 0 0 14.51248 0 0)
(120.093 1.242491e-14 0 12.85579 0 0)
(120.0931 -1.242493e-14 0 12.85581 0 0)
(98.90439 0 0 11.09923 0 0)
(98.90452 0 0 11.09925 0 0)
(79.34869 0 0 9.337538 0 0)
(79.34879 0 0 9.33755 0 0)
(62.11111 0 0 7.667273 0 0)
(62.1112 0 0 7.667284 0 0)
(47.59002 1.952519e-14 0 6.165079 0 0)
(47.59007 0 0 6.165085 0 0)
(35.82994 0 0 4.872434 0 0)
(35.82997 7.340463e-15 0 4.872438 0 0)
(26.5871 0 0 3.795344 0 0)
(26.58712 0 0 3.795348 0 0)
(19.46686 0 0 2.915654 0 0)
(19.46687 0 0 2.915656 0 0)
(14.0523 0 0 2.205336 0 0)
(14.05231 5.721814e-15 0 2.205337 0 0)
(9.965367 0 0 1.634653 0 0)
(9.965378 0 0 1.634655 0 0)
(6.911664 0 0 1.180147 0 0)
(6.911673 0 0 1.180149 0 0)
(4.606675 0 0 0.8140181 0 0)
(4.60668 0 0 0.8140189 0 0)
(2.970552 0 0 0.540338 0 0)
(2.970548 0 0 0.5403372 0 0)
(1.625863 0 0 0.3028717 0 0)
(1.625855 0 0 0.3028703 0 0)
(1.089628 0 0 0.2067876 0 0)
(1.089625 0 0 0.2067871 0 0)
(0.005884841 0 0 0.00113145 0 0)
(0.005886381 0 0 0.001131746 0 0)
(0.2037702 1.373835e-16 0 0.03944951 0 0)
(0.20377 0 0 0.03944947 0 0)
)
;

boundaryField
{
    leftandright
    {
        type            cyclic;
        value           nonuniform List<symmTensor> 
150
(
(3.90791e-05 0 0 9.602589e-10 0 0)
(0.002037435 0 0 2.304955e-07 0 0)
(0.01356432 0 0 3.667621e-06 0 0)
(0.04975713 0 0 2.459465e-05 0 0)
(0.1346379 0 0 0.0001052349 0 0)
(0.3020713 0 0 0.0003408375 0 0)
(0.5959773 1.264236e-35 0 0.0009117066 0 0)
(1.069334 0 0 0.002118018 0 0)
(1.781527 1.006603e-19 0 0.004410224 0 0)
(2.79383 0 0 0.008405597 0 0)
(4.163328 0 0 0.01488178 0 0)
(5.936281 1.524898e-34 0 0.02474289 0 0)
(8.142583 0 0 0.03896273 0 0)
(10.79307 -1.081967e-33 0 0.05851971 0 0)
(13.88086 0 0 0.0843447 0 0)
(17.38651 3.777288e-18 0 0.1173002 0 0)
(21.27429 0 0 0.1581145 0 0)
(25.91105 -1.228347e-17 0 0.2107215 0 0)
(33.18583 0 0 0.2935487 0 0)
(41.24436 2.084115e-17 0 0.3950103 0 0)
(50.08067 0 0 0.5176468 0 0)
(59.63639 -6.339979e-17 0 0.6638094 0 0)
(69.85342 -7.597318e-17 0 0.8361137 0 0)
(80.67594 0 0 1.037475 0 0)
(92.05017 1.045395e-16 0 1.271114 0 0)
(103.9229 1.205357e-16 0 1.540526 0 0)
(116.2398 2.753389e-16 0 1.849441 0 0)
(128.9431 0 0 2.201744 0 0)
(141.97 0 0 2.601381 0 0)
(155.2501 0 0 3.05223 0 0)
(168.7034 0 0 3.557932 0 0)
(182.2386 -4.782514e-16 0 4.1217 0 0)
(195.7517 1.571764e-15 0 4.746086 0 0)
(209.1247 0 0 5.432732 0 0)
(222.2263 -1.235371e-15 0 6.182098 0 0)
(234.9121 0 0 6.993191 0 0)
(247.0267 -1.422224e-15 0 7.86331 0 0)
(258.406 0 0 8.787809 0 0)
(268.8804 0 0 9.759901 0 0)
(278.2785 0 0 10.77051 0 0)
(286.4304 0 0 11.80821 0 0)
(293.1721 0 0 12.85915 0 0)
(298.3485 0 0 13.9072 0 0)
(301.8167 7.621683e-15 0 14.93395 0 0)
(303.4493 3.864671e-15 0 15.91899 0 0)
(303.1361 0 0 16.84015 0 0)
(300.7867 0 0 17.67375 0 0)
(296.3318 0 0 18.39503 0 0)
(289.725 -7.549047e-15 0 18.97855 0 0)
(280.945 -1.625937e-29 0 19.39877 0 0)
(269.998 0 0 19.63058 0 0)
(256.9209 0 0 19.65015 0 0)
(241.7882 0 0 19.43593 0 0)
(224.7205 0 0 18.97016 0 0)
(205.8989 0 0 18.24087 0 0)
(185.5862 1.700494e-30 0 17.24506 0 0)
(164.152 0 0 15.99278 0 0)
(142.1024 0 0 14.51247 0 0)
(120.093 2.53536e-30 0 12.8558 0 0)
(98.90445 0 0 11.09924 0 0)
(79.34874 0 0 9.337544 0 0)
(62.11116 0 0 7.667278 0 0)
(47.59004 9.762599e-15 0 6.165082 0 0)
(35.82996 3.67023e-15 0 4.872436 0 0)
(26.58711 0 0 3.795346 0 0)
(19.46687 0 0 2.915655 0 0)
(14.05231 2.860906e-15 0 2.205337 0 0)
(9.965373 0 0 1.634654 0 0)
(6.911668 0 0 1.180148 0 0)
(4.606678 0 0 0.8140185 0 0)
(2.97055 0 0 0.5403376 0 0)
(1.625859 0 0 0.302871 0 0)
(1.089626 0 0 0.2067874 0 0)
(0.005885611 0 0 0.001131598 0 0)
(0.2037701 6.869174e-17 0 0.03944949 0 0)
(3.90791e-05 0 0 9.602589e-10 0 0)
(0.002037435 0 0 2.304955e-07 0 0)
(0.01356432 0 0 3.667621e-06 0 0)
(0.04975713 0 0 2.459465e-05 0 0)
(0.1346379 0 0 0.0001052349 0 0)
(0.3020713 0 0 0.0003408375 0 0)
(0.5959773 1.404706e-35 0 0.0009117066 0 0)
(1.069334 0 0 0.002118018 0 0)
(1.781527 1.006603e-19 0 0.004410224 0 0)
(2.79383 0 0 0.008405597 0 0)
(4.163328 0 0 0.01488178 0 0)
(5.936281 1.524898e-34 0 0.02474289 0 0)
(8.142583 0 0 0.03896273 0 0)
(10.79307 -1.081967e-33 0 0.05851971 0 0)
(13.88086 0 0 0.0843447 0 0)
(17.38651 3.777288e-18 0 0.1173002 0 0)
(21.27429 0 0 0.1581145 0 0)
(25.91105 -1.228347e-17 0 0.2107215 0 0)
(33.18583 0 0 0.2935487 0 0)
(41.24436 2.084115e-17 0 0.3950103 0 0)
(50.08067 0 0 0.5176468 0 0)
(59.63639 -6.339979e-17 0 0.6638094 0 0)
(69.85342 -7.597318e-17 0 0.8361137 0 0)
(80.67594 0 0 1.037475 0 0)
(92.05017 1.045395e-16 0 1.271114 0 0)
(103.9229 1.205357e-16 0 1.540526 0 0)
(116.2398 2.753389e-16 0 1.849441 0 0)
(128.9431 0 0 2.201744 0 0)
(141.97 0 0 2.601381 0 0)
(155.2501 0 0 3.05223 0 0)
(168.7034 0 0 3.557932 0 0)
(182.2386 -4.782514e-16 0 4.1217 0 0)
(195.7517 1.571764e-15 0 4.746086 0 0)
(209.1247 0 0 5.432732 0 0)
(222.2263 -1.235371e-15 0 6.182098 0 0)
(234.9121 0 0 6.993191 0 0)
(247.0267 -1.422224e-15 0 7.86331 0 0)
(258.406 0 0 8.787809 0 0)
(268.8804 0 0 9.759901 0 0)
(278.2785 0 0 10.77051 0 0)
(286.4304 0 0 11.80821 0 0)
(293.1721 0 0 12.85915 0 0)
(298.3485 0 0 13.9072 0 0)
(301.8167 7.621683e-15 0 14.93395 0 0)
(303.4493 3.864671e-15 0 15.91899 0 0)
(303.1361 0 0 16.84015 0 0)
(300.7867 0 0 17.67375 0 0)
(296.3318 0 0 18.39503 0 0)
(289.725 -7.549047e-15 0 18.97855 0 0)
(280.945 -1.625937e-29 0 19.39877 0 0)
(269.998 0 0 19.63058 0 0)
(256.9209 0 0 19.65015 0 0)
(241.7882 0 0 19.43593 0 0)
(224.7205 0 0 18.97016 0 0)
(205.8989 0 0 18.24087 0 0)
(185.5862 1.700494e-30 0 17.24506 0 0)
(164.152 0 0 15.99278 0 0)
(142.1024 0 0 14.51247 0 0)
(120.093 2.53536e-30 0 12.8558 0 0)
(98.90445 0 0 11.09924 0 0)
(79.34874 0 0 9.337544 0 0)
(62.11116 0 0 7.667278 0 0)
(47.59004 9.762599e-15 0 6.165082 0 0)
(35.82996 3.67023e-15 0 4.872436 0 0)
(26.58711 0 0 3.795346 0 0)
(19.46687 0 0 2.915655 0 0)
(14.05231 2.860906e-15 0 2.205337 0 0)
(9.965373 0 0 1.634654 0 0)
(6.911668 0 0 1.180148 0 0)
(4.606678 0 0 0.8140185 0 0)
(2.97055 0 0 0.5403376 0 0)
(1.625859 0 0 0.302871 0 0)
(1.089626 0 0 0.2067874 0 0)
(0.005885611 0 0 0.001131598 0 0)
(0.2037701 6.869174e-17 0 0.03944949 0 0)
)
;
    }
    wall
    {
        type            calculated;
        value           nonuniform List<symmTensor> 2((9.475625e-08 0 0 6.159156e-08 0 0) (9.475608e-08 0 0 6.159145e-08 0 0));
    }
    frontAndBack
    {
        type            empty;
    }
    middle
    {
        type            symmetryPlane;
        value           nonuniform List<symmTensor> 2((0.2037702 0 0 0.03944951 0 0) (0.20377 0 0 0.03944947 0 0));
    }
}


// ************************************************************************* //
