/*--------------------------------*- C++ -*----------------------------------*\
| =========                 |                                                 |
| \\      /  F ield         | foam-extend: Open Source CFD                    |
|  \\    /   O peration     | Version:     4.0                                |
|   \\  /    A nd           | Web:         http://www.foam-extend.org         |
|    \\/     M anipulation  |                                                 |
\*---------------------------------------------------------------------------*/
FoamFile
{
    version     2.0;
    format      ascii;
    class       volSymmTensorField;
    location    "100";
    object      NLTPlus;
}
// * * * * * * * * * * * * * * * * * * * * * * * * * * * * * * * * * * * * * //

dimensions      [0 2 -2 0 0 0 0];

internalField   nonuniform List<symmTensor> 
150
(
(2.171063e-07 0 0 5.334776e-12 0 0)
(2.17106e-07 0 0 5.334767e-12 0 0)
(1.131909e-05 0 0 1.280531e-09 0 0)
(1.131907e-05 0 0 1.280529e-09 0 0)
(7.535741e-05 0 0 2.037569e-08 0 0)
(7.535728e-05 0 0 2.037565e-08 0 0)
(0.0002764287 0 0 1.36637e-07 0 0)
(0.0002764282 0 0 1.366368e-07 0 0)
(0.000747989 0 0 5.846385e-07 0 0)
(0.0007479878 0 0 5.846376e-07 0 0)
(0.001678175 0 0 1.893543e-06 0 0)
(0.001678173 0 0 1.89354e-06 0 0)
(0.003310988 -1.27726e-22 0 5.06504e-06 0 0)
(0.003310983 1.277258e-22 0 5.065033e-06 0 0)
(0.005940751 0 0 1.176677e-05 0 0)
(0.005940743 0 0 1.176676e-05 0 0)
(0.009897379 0 0 2.450126e-05 0 0)
(0.009897367 1.118447e-21 0 2.450123e-05 0 0)
(0.01552129 0 0 4.669779e-05 0 0)
(0.01552127 0 0 4.669774e-05 0 0)
(0.02312961 0 0 8.267659e-05 0 0)
(0.02312958 0 0 8.26765e-05 0 0)
(0.03297936 1.080655e-20 0 0.0001374606 0 0)
(0.03297932 -1.080654e-20 0 0.0001374604 0 0)
(0.04523659 0 0 0.0002164597 0 0)
(0.04523655 0 0 0.0002164595 0 0)
(0.05996152 -2.313342e-20 0 0.0003251096 0 0)
(0.05996148 2.313341e-20 0 0.0003251094 0 0)
(0.07711589 0 0 0.0004685818 0 0)
(0.07711585 0 0 0.0004685816 0 0)
(0.09659175 4.196987e-20 0 0.000651668 0 0)
(0.09659172 0 0 0.0006516679 0 0)
(0.1181905 0 0 0.0008784141 0 0)
(0.1181905 0 0 0.0008784142 0 0)
(0.1439503 -1.36483e-19 0 0.001170675 0 0)
(0.1439503 0 0 0.001170675 0 0)
(0.1843657 0 0 0.001630826 0 0)
(0.1843658 0 0 0.001630827 0 0)
(0.2291352 4.631366e-19 0 0.002194501 0 0)
(0.2291354 -2.315685e-19 0 0.002194502 0 0)
(0.2782258 0 0 0.002875814 0 0)
(0.2782261 0 0 0.002875817 0 0)
(0.3313131 -7.044418e-19 0 0.003687828 0 0)
(0.3313134 0 0 0.003687832 0 0)
(0.3880744 -8.44146e-19 0 0.004645073 0 0)
(0.3880747 0 0 0.004645078 0 0)
(0.4481995 0 0 0.00576375 0 0)
(0.4481999 0 0 0.005763756 0 0)
(0.5113896 1.16155e-18 0 0.00706174 0 0)
(0.5113901 0 0 0.007061747 0 0)
(0.5773493 1.339285e-18 0 0.008558475 0 0)
(0.5773498 0 0 0.008558482 0 0)
(0.6457764 3.059319e-18 0 0.01027467 0 0)
(0.6457769 0 0 0.01027467 0 0)
(0.7163505 0 0 0.0122319 0 0)
(0.7163511 0 0 0.01223191 0 0)
(0.788722 0 0 0.01445211 0 0)
(0.7887226 0 0 0.01445212 0 0)
(0.8625 0 0 0.01695682 0 0)
(0.8625008 0 0 0.01695684 0 0)
(0.9372406 -4.821523e-18 0 0.01976628 0 0)
(0.9372414 4.821528e-18 0 0.0197663 0 0)
(1.012436 -5.313902e-18 0 0.02289832 0 0)
(1.012437 0 0 0.02289835 0 0)
(1.087509 1.746403e-17 0 0.02636714 0 0)
(1.08751 0 0 0.02636716 0 0)
(1.161804 0 0 0.03018184 0 0)
(1.161804 0 0 0.03018185 0 0)
(1.23459 -1.372634e-17 0 0.03434498 0 0)
(1.234591 0 0 0.034345 0 0)
(1.305067 0 0 0.03885104 0 0)
(1.305068 0 0 0.03885108 0 0)
(1.37237 -3.160497e-17 0 0.04368505 0 0)
(1.372371 1.580249e-17 0 0.04368507 0 0)
(1.435588 0 0 0.04882114 0 0)
(1.435589 0 0 0.04882118 0 0)
(1.49378 0 0 0.05422165 0 0)
(1.49378 0 0 0.05422169 0 0)
(1.545991 0 0 0.05983617 0 0)
(1.545992 0 0 0.0598362 0 0)
(1.59128 0 0 0.06560114 0 0)
(1.59128 0 0 0.06560116 0 0)
(1.628734 0 0 0.07143974 0 0)
(1.628734 0 0 0.07143974 0 0)
(1.657492 0 0 0.0772622 0 0)
(1.657492 0 0 0.0772622 0 0)
(1.67676 8.468539e-17 0 0.08296638 0 0)
(1.676759 0 0 0.08296635 0 0)
(1.68583 4.29408e-17 0 0.08843888 0 0)
(1.685829 0 0 0.08843883 0 0)
(1.68409 0 0 0.09355639 0 0)
(1.684089 0 0 0.09355638 0 0)
(1.671037 0 0 0.0981875 0 0)
(1.671037 0 0 0.09818748 0 0)
(1.646288 0 0 0.1021946 0 0)
(1.646287 0 0 0.1021946 0 0)
(1.609583 -8.387831e-17 0 0.1054364 0 0)
(1.609583 0 0 0.1054364 0 0)
(1.560806 -8.156642e-17 0 0.107771 0 0)
(1.560805 8.156637e-17 0 0.1077709 0 0)
(1.499988 0 0 0.1090588 0 0)
(1.499989 0 0 0.1090588 0 0)
(1.427338 0 0 0.1091675 0 0)
(1.427338 0 0 0.1091675 0 0)
(1.343268 0 0 0.1079774 0 0)
(1.343268 0 0 0.1079774 0 0)
(1.248447 0 0 0.1053898 0 0)
(1.248448 0 0 0.1053898 0 0)
(1.143882 0 0 0.1013381 0 0)
(1.143883 0 0 0.1013382 0 0)
(1.031034 1.075313e-16 0 0.09580586 0 0)
(1.031035 -1.075314e-16 0 0.09580594 0 0)
(0.9119553 0 0 0.08884873 0 0)
(0.9119561 0 0 0.08884881 0 0)
(0.7894573 0 0 0.08062475 0 0)
(0.7894587 0 0 0.08062488 0 0)
(0.6671831 6.902729e-17 0 0.07142108 0 0)
(0.667184 -6.902739e-17 0 0.07142118 0 0)
(0.5494688 0 0 0.0616624 0 0)
(0.5494696 0 0 0.06166248 0 0)
(0.440826 0 0 0.05187521 0 0)
(0.4408266 0 0 0.05187528 0 0)
(0.3450617 0 0 0.04259596 0 0)
(0.3450622 0 0 0.04259602 0 0)
(0.264389 1.084733e-16 0 0.03425044 0 0)
(0.2643893 0 0 0.03425047 0 0)
(0.1990552 0 0 0.02706908 0 0)
(0.1990554 4.078035e-17 0 0.0270691 0 0)
(0.1477061 0 0 0.02108525 0 0)
(0.1477062 0 0 0.02108527 0 0)
(0.1081492 0 0 0.01619808 0 0)
(0.1081493 0 0 0.01619809 0 0)
(0.07806834 0 0 0.01225187 0 0)
(0.0780684 3.178786e-17 0 0.01225187 0 0)
(0.05536315 0 0 0.009081405 0 0)
(0.05536321 0 0 0.009081414 0 0)
(0.03839813 0 0 0.006556373 0 0)
(0.03839818 0 0 0.006556381 0 0)
(0.02559264 0 0 0.004522323 0 0)
(0.02559266 0 0 0.004522327 0 0)
(0.01650307 0 0 0.003001878 0 0)
(0.01650304 0 0 0.003001873 0 0)
(0.00903257 0 0 0.001682621 0 0)
(0.009032528 0 0 0.001682613 0 0)
(0.006053488 0 0 0.00114882 0 0)
(0.006053473 0 0 0.001148817 0 0)
(3.269356e-05 0 0 6.285834e-06 0 0)
(3.270212e-05 0 0 6.287479e-06 0 0)
(0.001132057 7.632419e-19 0 0.000219164 0 0)
(0.001132056 0 0 0.0002191637 0 0)
)
;

boundaryField
{
    leftandright
    {
        type            cyclic;
        value           nonuniform List<symmTensor> 
150
(
(2.171061e-07 0 0 5.334772e-12 0 0)
(1.131908e-05 0 0 1.28053e-09 0 0)
(7.535734e-05 0 0 2.037567e-08 0 0)
(0.0002764285 0 0 1.366369e-07 0 0)
(0.0007479884 0 0 5.846381e-07 0 0)
(0.001678174 0 0 1.893542e-06 0 0)
(0.003310985 7.023532e-38 0 5.065037e-06 0 0)
(0.005940747 0 0 1.176676e-05 0 0)
(0.009897373 5.592237e-22 0 2.450125e-05 0 0)
(0.01552128 0 0 4.669776e-05 0 0)
(0.0231296 0 0 8.267654e-05 0 0)
(0.03297934 8.471658e-37 0 0.0001374605 0 0)
(0.04523657 0 0 0.0002164596 0 0)
(0.0599615 -6.010926e-36 0 0.0003251095 0 0)
(0.07711587 0 0 0.0004685817 0 0)
(0.09659173 2.098493e-20 0 0.0006516679 0 0)
(0.1181905 0 0 0.0008784142 0 0)
(0.1439503 -6.824151e-20 0 0.001170675 0 0)
(0.1843657 0 0 0.001630826 0 0)
(0.2291353 1.157842e-19 0 0.002194502 0 0)
(0.278226 0 0 0.002875816 0 0)
(0.3313133 -3.522211e-19 0 0.00368783 0 0)
(0.3880746 -4.220732e-19 0 0.004645076 0 0)
(0.4481997 0 0 0.005763753 0 0)
(0.5113898 5.807751e-19 0 0.007061743 0 0)
(0.5773496 6.696428e-19 0 0.008558479 0 0)
(0.6457766 1.52966e-18 0 0.01027467 0 0)
(0.7163508 0 0 0.01223191 0 0)
(0.7887223 0 0 0.01445212 0 0)
(0.8625004 0 0 0.01695683 0 0)
(0.937241 0 0 0.01976629 0 0)
(1.012437 -2.656952e-18 0 0.02289833 0 0)
(1.087509 8.732021e-18 0 0.02636715 0 0)
(1.161804 0 0 0.03018184 0 0)
(1.234591 -6.863171e-18 0 0.03434499 0 0)
(1.305067 0 0 0.03885106 0 0)
(1.37237 -7.901244e-18 0 0.04368506 0 0)
(1.435589 0 0 0.04882116 0 0)
(1.49378 0 0 0.05422167 0 0)
(1.545991 0 0 0.05983618 0 0)
(1.59128 0 0 0.06560115 0 0)
(1.628734 0 0 0.07143974 0 0)
(1.657492 0 0 0.0772622 0 0)
(1.67676 4.234268e-17 0 0.08296637 0 0)
(1.685829 2.147039e-17 0 0.08843885 0 0)
(1.68409 0 0 0.09355639 0 0)
(1.671037 0 0 0.09818749 0 0)
(1.646288 0 0 0.1021946 0 0)
(1.609583 -4.193915e-17 0 0.1054364 0 0)
(1.560806 -9.032981e-32 0 0.1077709 0 0)
(1.499989 0 0 0.1090588 0 0)
(1.427338 0 0 0.1091675 0 0)
(1.343268 0 0 0.1079774 0 0)
(1.248447 0 0 0.1053898 0 0)
(1.143883 0 0 0.1013382 0 0)
(1.031034 9.447191e-33 0 0.0958059 0 0)
(0.9119557 0 0 0.08884877 0 0)
(0.789458 0 0 0.08062481 0 0)
(0.6671835 1.408534e-32 0 0.07142113 0 0)
(0.5494692 0 0 0.06166244 0 0)
(0.4408263 0 0 0.05187524 0 0)
(0.345062 0 0 0.04259599 0 0)
(0.2643891 5.423666e-17 0 0.03425046 0 0)
(0.1990553 2.039017e-17 0 0.02706909 0 0)
(0.1477062 0 0 0.02108526 0 0)
(0.1081493 0 0 0.01619808 0 0)
(0.07806837 1.589392e-17 0 0.01225187 0 0)
(0.05536318 0 0 0.00908141 0 0)
(0.03839816 0 0 0.006556377 0 0)
(0.02559265 0 0 0.004522325 0 0)
(0.01650305 0 0 0.003001875 0 0)
(0.009032549 0 0 0.001682617 0 0)
(0.00605348 0 0 0.001148819 0 0)
(3.269784e-05 0 0 6.286657e-06 0 0)
(0.001132056 3.816208e-19 0 0.0002191639 0 0)
(2.171061e-07 0 0 5.334772e-12 0 0)
(1.131908e-05 0 0 1.28053e-09 0 0)
(7.535734e-05 0 0 2.037567e-08 0 0)
(0.0002764285 0 0 1.366369e-07 0 0)
(0.0007479884 0 0 5.846381e-07 0 0)
(0.001678174 0 0 1.893542e-06 0 0)
(0.003310985 7.803925e-38 0 5.065037e-06 0 0)
(0.005940747 0 0 1.176676e-05 0 0)
(0.009897373 5.592237e-22 0 2.450125e-05 0 0)
(0.01552128 0 0 4.669776e-05 0 0)
(0.0231296 0 0 8.267654e-05 0 0)
(0.03297934 8.471658e-37 0 0.0001374605 0 0)
(0.04523657 0 0 0.0002164596 0 0)
(0.0599615 -6.010926e-36 0 0.0003251095 0 0)
(0.07711587 0 0 0.0004685817 0 0)
(0.09659173 2.098493e-20 0 0.0006516679 0 0)
(0.1181905 0 0 0.0008784142 0 0)
(0.1439503 -6.824151e-20 0 0.001170675 0 0)
(0.1843657 0 0 0.001630826 0 0)
(0.2291353 1.157842e-19 0 0.002194502 0 0)
(0.278226 0 0 0.002875816 0 0)
(0.3313133 -3.522211e-19 0 0.00368783 0 0)
(0.3880746 -4.220732e-19 0 0.004645076 0 0)
(0.4481997 0 0 0.005763753 0 0)
(0.5113898 5.807751e-19 0 0.007061743 0 0)
(0.5773496 6.696428e-19 0 0.008558479 0 0)
(0.6457766 1.52966e-18 0 0.01027467 0 0)
(0.7163508 0 0 0.01223191 0 0)
(0.7887223 0 0 0.01445212 0 0)
(0.8625004 0 0 0.01695683 0 0)
(0.937241 0 0 0.01976629 0 0)
(1.012437 -2.656952e-18 0 0.02289833 0 0)
(1.087509 8.732021e-18 0 0.02636715 0 0)
(1.161804 0 0 0.03018184 0 0)
(1.234591 -6.863171e-18 0 0.03434499 0 0)
(1.305067 0 0 0.03885106 0 0)
(1.37237 -7.901244e-18 0 0.04368506 0 0)
(1.435589 0 0 0.04882116 0 0)
(1.49378 0 0 0.05422167 0 0)
(1.545991 0 0 0.05983618 0 0)
(1.59128 0 0 0.06560115 0 0)
(1.628734 0 0 0.07143974 0 0)
(1.657492 0 0 0.0772622 0 0)
(1.67676 4.234268e-17 0 0.08296637 0 0)
(1.685829 2.147039e-17 0 0.08843885 0 0)
(1.68409 0 0 0.09355639 0 0)
(1.671037 0 0 0.09818749 0 0)
(1.646288 0 0 0.1021946 0 0)
(1.609583 -4.193915e-17 0 0.1054364 0 0)
(1.560806 -9.032981e-32 0 0.1077709 0 0)
(1.499989 0 0 0.1090588 0 0)
(1.427338 0 0 0.1091675 0 0)
(1.343268 0 0 0.1079774 0 0)
(1.248447 0 0 0.1053898 0 0)
(1.143883 0 0 0.1013382 0 0)
(1.031034 9.447191e-33 0 0.0958059 0 0)
(0.9119557 0 0 0.08884877 0 0)
(0.789458 0 0 0.08062481 0 0)
(0.6671835 1.408534e-32 0 0.07142113 0 0)
(0.5494692 0 0 0.06166244 0 0)
(0.4408263 0 0 0.05187524 0 0)
(0.345062 0 0 0.04259599 0 0)
(0.2643891 5.423666e-17 0 0.03425046 0 0)
(0.1990553 2.039017e-17 0 0.02706909 0 0)
(0.1477062 0 0 0.02108526 0 0)
(0.1081493 0 0 0.01619808 0 0)
(0.07806837 1.589392e-17 0 0.01225187 0 0)
(0.05536318 0 0 0.00908141 0 0)
(0.03839816 0 0 0.006556377 0 0)
(0.02559265 0 0 0.004522325 0 0)
(0.01650305 0 0 0.003001875 0 0)
(0.009032549 0 0 0.001682617 0 0)
(0.00605348 0 0 0.001148819 0 0)
(3.269784e-05 0 0 6.286657e-06 0 0)
(0.001132056 3.816208e-19 0 0.0002191639 0 0)
)
;
    }
    wall
    {
        type            calculated;
        value           nonuniform List<symmTensor> 2((5.264236e-10 0 0 3.421753e-10 0 0) (5.264227e-10 0 0 3.421747e-10 0 0));
    }
    frontAndBack
    {
        type            empty;
    }
    middle
    {
        type            symmetryPlane;
        value           nonuniform List<symmTensor> 2((0.001132057 0 0 0.000219164 0 0) (0.001132056 0 0 0.0002191637 0 0));
    }
}


// ************************************************************************* //
