/*--------------------------------*- C++ -*----------------------------------*\
| =========                 |                                                 |
| \\      /  F ield         | foam-extend: Open Source CFD                    |
|  \\    /   O peration     | Version:     4.0                                |
|   \\  /    A nd           | Web:         http://www.foam-extend.org         |
|    \\/     M anipulation  |                                                 |
\*---------------------------------------------------------------------------*/
FoamFile
{
    version     2.0;
    format      ascii;
    class       volScalarField;
    location    "100";
    object      nut;
}
// * * * * * * * * * * * * * * * * * * * * * * * * * * * * * * * * * * * * * //

dimensions      [0 2 -1 0 0 0 0];

internalField   nonuniform List<scalar> 
150
(
7.713071e-10
7.713072e-10
4.026985e-08
4.026985e-08
2.684998e-07
2.684998e-07
9.864914e-07
9.864915e-07
2.674062e-06
2.674063e-06
6.011837e-06
6.011838e-06
1.189107e-05
1.189107e-05
2.140349e-05
2.140349e-05
3.580331e-05
3.580332e-05
5.643665e-05
5.643665e-05
8.464077e-05
8.464078e-05
0.0001216266
0.0001216267
0.0001683686
0.0001683686
0.0002255289
0.0002255289
0.0002934381
0.0002934381
0.0003721336
0.0003721337
0.0004614417
0.0004614418
0.000571644
0.0005716441
0.0007494085
0.0007494086
0.0009575555
0.0009575557
0.001197846
0.001197847
0.00147233
0.00147233
0.001783352
0.001783353
0.002133532
0.002133532
0.002525726
0.002525726
0.00296299
0.002962991
0.003448545
0.003448545
0.003985734
0.003985734
0.004577996
0.004577997
0.005228825
0.005228825
0.005941733
0.005941733
0.006720213
0.006720213
0.007567694
0.007567695
0.0084875
0.0084875
0.0094828
0.0094828
0.01055656
0.01055656
0.01171151
0.01171151
0.01295005
0.01295005
0.01427427
0.01427427
0.01568584
0.01568584
0.017186
0.017186
0.01877551
0.01877551
0.02045461
0.02045461
0.02222302
0.02222302
0.02407987
0.02407987
0.02602375
0.02602375
0.02805272
0.02805272
0.03016431
0.03016431
0.03235563
0.03235563
0.03462348
0.03462348
0.03696451
0.0369645
0.03937541
0.03937541
0.04185328
0.04185328
0.04439595
0.04439595
0.04700251
0.04700251
0.04967389
0.04967389
0.05241354
0.05241354
0.05522819
0.05522819
0.05812861
0.05812861
0.06113018
0.06113018
0.0642532
0.0642532
0.06752248
0.06752248
0.070966
0.070966
0.07461205
0.07461205
0.07848419
0.07848419
0.0825931
0.08259309
0.08692401
0.08692401
0.09141855
0.09141855
0.09594923
0.09594923
0.1003305
0.1003305
0.1045416
0.1045416
0.108477
0.108477
0.11193
0.11193
0.1145947
0.1145947
0.1161033
0.1161033
)
;

boundaryField
{
    leftandright
    {
        type            cyclic;
        value           nonuniform List<scalar> 
150
(
7.713072e-10
4.026985e-08
2.684998e-07
9.864915e-07
2.674062e-06
6.011838e-06
1.189107e-05
2.140349e-05
3.580332e-05
5.643665e-05
8.464077e-05
0.0001216266
0.0001683686
0.0002255289
0.0002934381
0.0003721336
0.0004614417
0.000571644
0.0007494085
0.0009575556
0.001197846
0.00147233
0.001783353
0.002133532
0.002525726
0.002962991
0.003448545
0.003985734
0.004577996
0.005228825
0.005941733
0.006720213
0.007567694
0.0084875
0.0094828
0.01055656
0.01171151
0.01295005
0.01427427
0.01568584
0.017186
0.01877551
0.02045461
0.02222302
0.02407987
0.02602375
0.02805272
0.03016431
0.03235563
0.03462348
0.03696451
0.03937541
0.04185328
0.04439595
0.04700251
0.04967389
0.05241354
0.05522819
0.05812861
0.06113018
0.0642532
0.06752248
0.070966
0.07461205
0.07848419
0.08259309
0.08692401
0.09141855
0.09594923
0.1003305
0.1045416
0.108477
0.11193
0.1145947
0.1161033
7.713072e-10
4.026985e-08
2.684998e-07
9.864915e-07
2.674062e-06
6.011838e-06
1.189107e-05
2.140349e-05
3.580332e-05
5.643665e-05
8.464077e-05
0.0001216266
0.0001683686
0.0002255289
0.0002934381
0.0003721336
0.0004614417
0.000571644
0.0007494085
0.0009575556
0.001197846
0.00147233
0.001783353
0.002133532
0.002525726
0.002962991
0.003448545
0.003985734
0.004577996
0.005228825
0.005941733
0.006720213
0.007567694
0.0084875
0.0094828
0.01055656
0.01171151
0.01295005
0.01427427
0.01568584
0.017186
0.01877551
0.02045461
0.02222302
0.02407987
0.02602375
0.02805272
0.03016431
0.03235563
0.03462348
0.03696451
0.03937541
0.04185328
0.04439595
0.04700251
0.04967389
0.05241354
0.05522819
0.05812861
0.06113018
0.0642532
0.06752248
0.070966
0.07461205
0.07848419
0.08259309
0.08692401
0.09141855
0.09594923
0.1003305
0.1045416
0.108477
0.11193
0.1145947
0.1161033
)
;
    }
    wall
    {
        type            nutLowReWallFunction;
        Cmu             0.09;
        kappa           0.41;
        E               9.8;
        value           nonuniform List<scalar> 2(1.868995e-12 1.868995e-12);
    }
    frontAndBack
    {
        type            empty;
    }
    middle
    {
        type            symmetryPlane;
        value           nonuniform List<scalar> 2(0.1161033 0.1161033);
    }
}


// ************************************************************************* //
