/*--------------------------------*- C++ -*----------------------------------*\
| =========                 |                                                 |
| \\      /  F ield         | foam-extend: Open Source CFD                    |
|  \\    /   O peration     | Version:     4.0                                |
|   \\  /    A nd           | Web:         http://www.foam-extend.org         |
|    \\/     M anipulation  |                                                 |
\*---------------------------------------------------------------------------*/
FoamFile
{
    version     2.0;
    format      ascii;
    class       volSymmTensorField;
    location    "100";
    object      RStress;
}
// * * * * * * * * * * * * * * * * * * * * * * * * * * * * * * * * * * * * * //

dimensions      [0 2 -2 0 0 0 0];

internalField   nonuniform List<symmTensor> 
150
(
(0.002093606 -1.467918e-07 0 4.061455e-08 0 5.509036e-05)
(0.002093606 -1.467919e-07 0 4.061456e-08 0 5.509041e-05)
(0.02302289 -7.653721e-06 0 2.056435e-06 0 0.0006060273)
(0.02302289 -7.653722e-06 0 2.056436e-06 0 0.0006060278)
(0.06229773 -5.095772e-05 0 1.33013e-05 0 0.001640841)
(0.06229773 -5.095772e-05 0 1.330131e-05 0 0.001640842)
(0.1215174 -0.0001869208 0 4.743983e-05 0 0.003203221)
(0.1215174 -0.0001869208 0 4.743984e-05 0 0.003203223)
(0.2023816 -0.0005057246 0 0.0001249655 0 0.005340245)
(0.2023816 -0.0005057246 0 0.0001249655 0 0.005340248)
(0.3066843 -0.001134351 0 0.0002734551 0 0.008102481)
(0.3066843 -0.001134351 0 0.0002734552 0 0.008102484)
(0.4349023 -0.00223718 0 0.0005276093 0 0.0129357)
(0.4349023 -0.002237181 0 0.0005276093 0 0.0129357)
(0.5888977 -0.004011925 0 0.0009290387 0 0.01993845)
(0.5888977 -0.004011926 0 0.0009290389 0 0.01993845)
(0.7705403 -0.006679173 0 0.001525768 0 0.02917746)
(0.7705404 -0.006679173 0 0.001525768 0 0.02917747)
(0.9813243 -0.01046463 0 0.002371443 0 0.04098303)
(0.9813243 -0.01046463 0 0.002371443 0 0.04098303)
(1.222531 -0.01557507 0 0.003524266 0 0.05567706)
(1.222532 -0.01557507 0 0.003524267 0 0.05567706)
(1.495121 -0.02217165 0 0.005045731 0 0.07356419)
(1.495121 -0.02217165 0 0.005045732 0 0.0735642)
(1.799625 -0.03034661 0 0.006999265 0 0.09492279)
(1.799626 -0.03034661 0 0.006999266 0 0.0949228)
(2.136073 -0.04010987 0 0.009448939 0 0.119997)
(2.136073 -0.04010987 0 0.009448941 0 0.119997)
(2.50395 -0.05138963 0 0.01245842 0 0.1489913)
(2.503951 -0.05138964 0 0.01245842 0 0.1489913)
(2.90222 -0.06404669 0 0.01609026 0 0.182068)
(2.90222 -0.0640467 0 0.01609026 0 0.182068)
(3.329388 -0.07786227 0 0.02040542 0 0.2193489)
(3.329388 -0.07786228 0 0.02040542 0 0.2193489)
(3.783226 -0.09408494 0 0.02545857 0 0.260883)
(3.783226 -0.09408495 0 0.02545857 0 0.260883)
(4.258348 -0.1193786 0 0.03127309 0 0.3064373)
(4.258348 -0.1193786 0 0.0312731 0 0.3064373)
(4.744908 -0.1467263 0 0.03785468 0 0.3555165)
(4.744909 -0.1467263 0 0.03785468 0 0.3555165)
(5.234132 -0.1758135 0 0.04521768 0 0.4076816)
(5.234132 -0.1758135 0 0.04521768 0 0.4076816)
(5.716946 -0.2061576 0 0.05336648 0 0.4624069)
(5.716947 -0.2061576 0 0.05336648 0 0.4624069)
(6.184416 -0.237293 0 0.06229534 0 0.5190978)
(6.184416 -0.2372931 0 0.06229535 0 0.5190979)
(6.62815 -0.268777 0 0.07198772 0 0.5771113)
(6.62815 -0.268777 0 0.07198773 0 0.5771113)
(7.040648 -0.3001935 0 0.08241636 0 0.6357783)
(7.040648 -0.3001936 0 0.08241637 0 0.6357784)
(7.415573 -0.3311592 0 0.09354384 0 0.6944271)
(7.415573 -0.3311593 0 0.09354385 0 0.6944272)
(7.747935 -0.361328 0 0.1053235 0 0.752405)
(7.747935 -0.361328 0 0.1053235 0 0.752405)
(8.034176 -0.3903961 0 0.1177006 0 0.8090974)
(8.034176 -0.3903961 0 0.1177006 0 0.8090975)
(8.272171 -0.4181051 0 0.1306136 0 0.8639446)
(8.272171 -0.4181052 0 0.1306136 0 0.8639446)
(8.461151 -0.4442443 0 0.1439957 0 0.9164525)
(8.461151 -0.4442443 0 0.1439957 0 0.9164526)
(8.601565 -0.4686497 0 0.1577764 0 0.9662009)
(8.601566 -0.4686497 0 0.1577764 0 0.9662009)
(8.694906 -0.4912029 0 0.1718822 0 1.012846)
(8.694906 -0.491203 0 0.1718823 0 1.012846)
(8.743505 -0.5118279 0 0.1862388 0 1.05612)
(8.743506 -0.5118279 0 0.1862388 0 1.05612)
(8.750335 -0.5304863 0 0.2007709 0 1.095827)
(8.750335 -0.5304864 0 0.200771 0 1.095827)
(8.718807 -0.5471732 0 0.2154042 0 1.131841)
(8.718807 -0.5471732 0 0.2154042 0 1.131841)
(8.652598 -0.5619111 0 0.230065 0 1.164092)
(8.652598 -0.5619111 0 0.230065 0 1.164092)
(8.555495 -0.5747452 0 0.2446815 0 1.192562)
(8.555495 -0.5747452 0 0.2446815 0 1.192562)
(8.431265 -0.5857376 0 0.2591835 0 1.217279)
(8.431265 -0.5857376 0 0.2591835 0 1.217279)
(8.283559 -0.5949628 0 0.2735032 0 1.238303)
(8.283559 -0.5949628 0 0.2735032 0 1.238303)
(8.115837 -0.6025032 0 0.2875747 0 1.255721)
(8.115837 -0.6025032 0 0.2875747 0 1.255721)
(7.931312 -0.6084451 0 0.3013345 0 1.269641)
(7.931313 -0.6084451 0 0.3013345 0 1.269641)
(7.732925 -0.6128753 0 0.3147216 0 1.280185)
(7.732925 -0.6128753 0 0.3147216 0 1.280185)
(7.523321 -0.6158785 0 0.327677 0 1.287484)
(7.523321 -0.6158785 0 0.327677 0 1.287484)
(7.304853 -0.6175352 0 0.3401443 0 1.291671)
(7.304853 -0.6175352 0 0.3401443 0 1.291671)
(7.079581 -0.6179196 0 0.3520692 0 1.292882)
(7.079581 -0.6179196 0 0.3520692 0 1.292882)
(6.84929 -0.6170986 0 0.3634 0 1.29125)
(6.84929 -0.6170986 0 0.3634 0 1.29125)
(6.615506 -0.6151309 0 0.3740875 0 1.286903)
(6.615506 -0.6151309 0 0.3740875 0 1.286903)
(6.379515 -0.6120666 0 0.384085 0 1.279965)
(6.379515 -0.6120666 0 0.384085 0 1.279965)
(6.142384 -0.6079465 0 0.3933492 0 1.27055)
(6.142384 -0.6079465 0 0.3933491 0 1.27055)
(5.904987 -0.602802 0 0.4018396 0 1.25877)
(5.904987 -0.602802 0 0.4018396 0 1.25877)
(5.668024 -0.5966551 0 0.40952 0 1.244725)
(5.668024 -0.5966551 0 0.40952 0 1.244725)
(5.432045 -0.5895178 0 0.4163582 0 1.228512)
(5.432045 -0.5895178 0 0.4163582 0 1.228512)
(5.197472 -0.5813919 0 0.4223274 0 1.210222)
(5.197472 -0.5813919 0 0.4223274 0 1.210222)
(4.964622 -0.5722675 0 0.4274064 0 1.189941)
(4.964622 -0.5722675 0 0.4274064 0 1.189941)
(4.733731 -0.5621217 0 0.4315813 0 1.167754)
(4.733731 -0.5621217 0 0.4315812 0 1.167754)
(4.504981 -0.5509159 0 0.4348456 0 1.143748)
(4.504981 -0.5509159 0 0.4348456 0 1.143748)
(4.278531 -0.5385922 0 0.4372023 0 1.118013)
(4.278531 -0.5385922 0 0.4372022 0 1.118013)
(4.054552 -0.5250706 0 0.438664 0 1.090652)
(4.054552 -0.5250706 0 0.438664 0 1.090652)
(3.833271 -0.5102469 0 0.4392544 0 1.061779)
(3.833271 -0.5102468 0 0.4392544 0 1.061779)
(3.615019 -0.4939969 0 0.4390086 0 1.031536)
(3.615019 -0.4939969 0 0.4390086 0 1.031536)
(3.40029 -0.4761877 0 0.4379724 0 1.000092)
(3.40029 -0.4761877 0 0.4379723 0 1.000092)
(3.189791 -0.4566956 0 0.4362001 0 0.9676571)
(3.189791 -0.4566956 0 0.4362001 0 0.9676571)
(2.984482 -0.4354235 0 0.4337506 0 0.934484)
(2.984482 -0.4354235 0 0.4337506 0 0.934484)
(2.785598 -0.4123084 0 0.4306796 0 0.9008703)
(2.785598 -0.4123084 0 0.4306796 0 0.9008703)
(2.59464 -0.3873149 0 0.4270279 0 0.8671526)
(2.59464 -0.3873149 0 0.4270279 0 0.8671526)
(2.41333 -0.3604188 0 0.4228125 0 0.8336933)
(2.41333 -0.3604188 0 0.4228125 0 0.8336933)
(2.243564 -0.3315912 0 0.4179839 0 0.8008615)
(2.243564 -0.3315912 0 0.4179838 0 0.8008614)
(2.087342 -0.3007885 0 0.4124772 0 0.7690066)
(2.087342 -0.3007885 0 0.4124772 0 0.7690066)
(1.946723 -0.2679245 0 0.4058742 0 0.7384267)
(1.946723 -0.2679245 0 0.4058742 0 0.7384267)
(1.823542 -0.2328189 0 0.398838 0 0.7094589)
(1.823542 -0.2328189 0 0.398838 0 0.7094589)
(1.718062 -0.195615 0 0.3893926 0 0.6831043)
(1.718062 -0.195615 0 0.3893926 0 0.6831043)
(1.630899 -0.1562188 0 0.3874488 0 0.6602889)
(1.630899 -0.1562188 0 0.3874488 0 0.6602889)
(1.562975 -0.1145319 0 0.3636354 0 0.6418803)
(1.562975 -0.1145319 0 0.3636354 0 0.6418803)
(1.515578 -0.07046542 0 0.3952159 0 0.6287166)
(1.515578 -0.0704654 0 0.3952159 0 0.6287166)
(1.490499 -0.02391651 0 0.3568236 0 0.6216433)
(1.490499 -0.0239165 0 0.3568236 0 0.6216433)
)
;

boundaryField
{
    leftandright
    {
        type            cyclic;
        value           nonuniform List<symmTensor> 
150
(
(0.002093606 -1.467919e-07 0 4.061455e-08 0 5.509039e-05)
(0.02302289 -7.653722e-06 0 2.056436e-06 0 0.0006060275)
(0.06229773 -5.095772e-05 0 1.330131e-05 0 0.001640841)
(0.1215174 -0.0001869208 0 4.743983e-05 0 0.003203222)
(0.2023816 -0.0005057246 0 0.0001249655 0 0.005340246)
(0.3066843 -0.001134351 0 0.0002734551 0 0.008102482)
(0.4349023 -0.00223718 0 0.0005276093 0 0.0129357)
(0.5888977 -0.004011925 0 0.0009290388 0 0.01993845)
(0.7705403 -0.006679173 0 0.001525768 0 0.02917747)
(0.9813243 -0.01046463 0 0.002371443 0 0.04098303)
(1.222531 -0.01557507 0 0.003524266 0 0.05567706)
(1.495121 -0.02217165 0 0.005045732 0 0.0735642)
(1.799626 -0.03034661 0 0.006999266 0 0.09492279)
(2.136073 -0.04010987 0 0.00944894 0 0.119997)
(2.50395 -0.05138964 0 0.01245842 0 0.1489913)
(2.90222 -0.06404669 0 0.01609026 0 0.182068)
(3.329388 -0.07786227 0 0.02040542 0 0.2193489)
(3.783226 -0.09408495 0 0.02545857 0 0.260883)
(4.258348 -0.1193786 0 0.03127309 0 0.3064373)
(4.744909 -0.1467263 0 0.03785468 0 0.3555165)
(5.234132 -0.1758135 0 0.04521768 0 0.4076816)
(5.716946 -0.2061576 0 0.05336648 0 0.4624069)
(6.184416 -0.2372931 0 0.06229535 0 0.5190978)
(6.62815 -0.268777 0 0.07198773 0 0.5771113)
(7.040648 -0.3001936 0 0.08241636 0 0.6357783)
(7.415573 -0.3311592 0 0.09354384 0 0.6944272)
(7.747935 -0.361328 0 0.1053235 0 0.752405)
(8.034176 -0.3903961 0 0.1177006 0 0.8090975)
(8.272171 -0.4181052 0 0.1306136 0 0.8639446)
(8.461151 -0.4442443 0 0.1439957 0 0.9164526)
(8.601566 -0.4686497 0 0.1577764 0 0.9662009)
(8.694906 -0.4912029 0 0.1718823 0 1.012846)
(8.743505 -0.5118279 0 0.1862388 0 1.05612)
(8.750335 -0.5304863 0 0.2007709 0 1.095827)
(8.718807 -0.5471732 0 0.2154042 0 1.131841)
(8.652598 -0.5619111 0 0.230065 0 1.164092)
(8.555495 -0.5747452 0 0.2446815 0 1.192562)
(8.431265 -0.5857376 0 0.2591835 0 1.217279)
(8.283559 -0.5949628 0 0.2735032 0 1.238303)
(8.115837 -0.6025032 0 0.2875747 0 1.255721)
(7.931313 -0.6084451 0 0.3013345 0 1.269641)
(7.732925 -0.6128753 0 0.3147216 0 1.280185)
(7.523321 -0.6158785 0 0.327677 0 1.287484)
(7.304853 -0.6175352 0 0.3401443 0 1.291671)
(7.079581 -0.6179196 0 0.3520692 0 1.292882)
(6.84929 -0.6170986 0 0.3634 0 1.29125)
(6.615506 -0.6151309 0 0.3740875 0 1.286903)
(6.379515 -0.6120666 0 0.384085 0 1.279965)
(6.142384 -0.6079465 0 0.3933491 0 1.27055)
(5.904987 -0.602802 0 0.4018396 0 1.25877)
(5.668024 -0.5966551 0 0.40952 0 1.244725)
(5.432045 -0.5895178 0 0.4163582 0 1.228512)
(5.197472 -0.5813919 0 0.4223274 0 1.210222)
(4.964622 -0.5722675 0 0.4274064 0 1.189941)
(4.733731 -0.5621217 0 0.4315813 0 1.167754)
(4.504981 -0.5509159 0 0.4348456 0 1.143748)
(4.278531 -0.5385922 0 0.4372022 0 1.118013)
(4.054552 -0.5250706 0 0.438664 0 1.090652)
(3.833271 -0.5102468 0 0.4392544 0 1.061779)
(3.615019 -0.4939969 0 0.4390086 0 1.031536)
(3.40029 -0.4761877 0 0.4379724 0 1.000092)
(3.189791 -0.4566956 0 0.4362001 0 0.9676571)
(2.984482 -0.4354235 0 0.4337506 0 0.934484)
(2.785598 -0.4123084 0 0.4306796 0 0.9008703)
(2.59464 -0.3873149 0 0.4270279 0 0.8671526)
(2.41333 -0.3604188 0 0.4228125 0 0.8336933)
(2.243564 -0.3315912 0 0.4179838 0 0.8008614)
(2.087342 -0.3007885 0 0.4124772 0 0.7690066)
(1.946723 -0.2679245 0 0.4058742 0 0.7384267)
(1.823542 -0.2328189 0 0.398838 0 0.7094589)
(1.718062 -0.195615 0 0.3893926 0 0.6831043)
(1.630899 -0.1562188 0 0.3874488 0 0.6602889)
(1.562975 -0.1145319 0 0.3636354 0 0.6418803)
(1.515578 -0.07046541 0 0.3952159 0 0.6287166)
(1.490499 -0.02391651 0 0.3568236 0 0.6216433)
(0.002093606 -1.467919e-07 0 4.061455e-08 0 5.509039e-05)
(0.02302289 -7.653722e-06 0 2.056436e-06 0 0.0006060275)
(0.06229773 -5.095772e-05 0 1.330131e-05 0 0.001640841)
(0.1215174 -0.0001869208 0 4.743983e-05 0 0.003203222)
(0.2023816 -0.0005057246 0 0.0001249655 0 0.005340246)
(0.3066843 -0.001134351 0 0.0002734551 0 0.008102482)
(0.4349023 -0.00223718 0 0.0005276093 0 0.0129357)
(0.5888977 -0.004011925 0 0.0009290388 0 0.01993845)
(0.7705403 -0.006679173 0 0.001525768 0 0.02917747)
(0.9813243 -0.01046463 0 0.002371443 0 0.04098303)
(1.222531 -0.01557507 0 0.003524266 0 0.05567706)
(1.495121 -0.02217165 0 0.005045732 0 0.0735642)
(1.799626 -0.03034661 0 0.006999266 0 0.09492279)
(2.136073 -0.04010987 0 0.00944894 0 0.119997)
(2.50395 -0.05138964 0 0.01245842 0 0.1489913)
(2.90222 -0.06404669 0 0.01609026 0 0.182068)
(3.329388 -0.07786227 0 0.02040542 0 0.2193489)
(3.783226 -0.09408495 0 0.02545857 0 0.260883)
(4.258348 -0.1193786 0 0.03127309 0 0.3064373)
(4.744909 -0.1467263 0 0.03785468 0 0.3555165)
(5.234132 -0.1758135 0 0.04521768 0 0.4076816)
(5.716946 -0.2061576 0 0.05336648 0 0.4624069)
(6.184416 -0.2372931 0 0.06229535 0 0.5190978)
(6.62815 -0.268777 0 0.07198773 0 0.5771113)
(7.040648 -0.3001936 0 0.08241636 0 0.6357783)
(7.415573 -0.3311592 0 0.09354384 0 0.6944272)
(7.747935 -0.361328 0 0.1053235 0 0.752405)
(8.034176 -0.3903961 0 0.1177006 0 0.8090975)
(8.272171 -0.4181052 0 0.1306136 0 0.8639446)
(8.461151 -0.4442443 0 0.1439957 0 0.9164526)
(8.601566 -0.4686497 0 0.1577764 0 0.9662009)
(8.694906 -0.4912029 0 0.1718823 0 1.012846)
(8.743505 -0.5118279 0 0.1862388 0 1.05612)
(8.750335 -0.5304863 0 0.2007709 0 1.095827)
(8.718807 -0.5471732 0 0.2154042 0 1.131841)
(8.652598 -0.5619111 0 0.230065 0 1.164092)
(8.555495 -0.5747452 0 0.2446815 0 1.192562)
(8.431265 -0.5857376 0 0.2591835 0 1.217279)
(8.283559 -0.5949628 0 0.2735032 0 1.238303)
(8.115837 -0.6025032 0 0.2875747 0 1.255721)
(7.931313 -0.6084451 0 0.3013345 0 1.269641)
(7.732925 -0.6128753 0 0.3147216 0 1.280185)
(7.523321 -0.6158785 0 0.327677 0 1.287484)
(7.304853 -0.6175352 0 0.3401443 0 1.291671)
(7.079581 -0.6179196 0 0.3520692 0 1.292882)
(6.84929 -0.6170986 0 0.3634 0 1.29125)
(6.615506 -0.6151309 0 0.3740875 0 1.286903)
(6.379515 -0.6120666 0 0.384085 0 1.279965)
(6.142384 -0.6079465 0 0.3933491 0 1.27055)
(5.904987 -0.602802 0 0.4018396 0 1.25877)
(5.668024 -0.5966551 0 0.40952 0 1.244725)
(5.432045 -0.5895178 0 0.4163582 0 1.228512)
(5.197472 -0.5813919 0 0.4223274 0 1.210222)
(4.964622 -0.5722675 0 0.4274064 0 1.189941)
(4.733731 -0.5621217 0 0.4315813 0 1.167754)
(4.504981 -0.5509159 0 0.4348456 0 1.143748)
(4.278531 -0.5385922 0 0.4372022 0 1.118013)
(4.054552 -0.5250706 0 0.438664 0 1.090652)
(3.833271 -0.5102468 0 0.4392544 0 1.061779)
(3.615019 -0.4939969 0 0.4390086 0 1.031536)
(3.40029 -0.4761877 0 0.4379724 0 1.000092)
(3.189791 -0.4566956 0 0.4362001 0 0.9676571)
(2.984482 -0.4354235 0 0.4337506 0 0.934484)
(2.785598 -0.4123084 0 0.4306796 0 0.9008703)
(2.59464 -0.3873149 0 0.4270279 0 0.8671526)
(2.41333 -0.3604188 0 0.4228125 0 0.8336933)
(2.243564 -0.3315912 0 0.4179838 0 0.8008614)
(2.087342 -0.3007885 0 0.4124772 0 0.7690066)
(1.946723 -0.2679245 0 0.4058742 0 0.7384267)
(1.823542 -0.2328189 0 0.398838 0 0.7094589)
(1.718062 -0.195615 0 0.3893926 0 0.6831043)
(1.630899 -0.1562188 0 0.3874488 0 0.6602889)
(1.562975 -0.1145319 0 0.3636354 0 0.6418803)
(1.515578 -0.07046541 0 0.3952159 0 0.6287166)
(1.490499 -0.02391651 0 0.3568236 0 0.6216433)
)
;
    }
    wall
    {
        type            calculated;
        value           nonuniform List<symmTensor> 2((3.333333e-11 -3.559307e-10 0 9.999952e-11 0 6.666667e-11) (3.333333e-11 -3.559307e-10 0 9.999952e-11 0 6.666667e-11));
    }
    frontAndBack
    {
        type            empty;
    }
    middle
    {
        type            symmetryPlane;
        value           nonuniform List<symmTensor> 2((1.490499 0 0 0.5088987 0 0.6216433) (1.490499 0 0 0.5088987 0 0.6216433));
    }
}


// ************************************************************************* //
