/*--------------------------------*- C++ -*----------------------------------*\
| =========                 |                                                 |
| \\      /  F ield         | foam-extend: Open Source CFD                    |
|  \\    /   O peration     | Version:     4.0                                |
|   \\  /    A nd           | Web:         http://www.foam-extend.org         |
|    \\/     M anipulation  |                                                 |
\*---------------------------------------------------------------------------*/
FoamFile
{
    version     2.0;
    format      ascii;
    class       volScalarField;
    location    "100";
    object      v2;
}
// * * * * * * * * * * * * * * * * * * * * * * * * * * * * * * * * * * * * * //

dimensions      [0 2 -2 0 0 0 0];

internalField   nonuniform List<scalar> 
150
(
4.061474e-08
4.061475e-08
2.056445e-06
2.056445e-06
1.330137e-05
1.330137e-05
4.744007e-05
4.744007e-05
0.0001249661
0.0001249661
0.0002734564
0.0002734565
0.0005276115
0.0005276116
0.0009290419
0.000929042
0.001525771
0.001525771
0.002371444
0.002371445
0.003524263
0.003524264
0.00504572
0.00504572
0.006999242
0.006999243
0.009448904
0.009448906
0.01245835
0.01245835
0.01609006
0.01609006
0.02040503
0.02040504
0.02545825
0.02545826
0.03127301
0.03127301
0.03785456
0.03785457
0.0452174
0.04521741
0.0533662
0.0533662
0.06229512
0.06229513
0.07198759
0.0719876
0.08241635
0.08241636
0.09354399
0.093544
0.1053238
0.1053238
0.1177011
0.1177011
0.1306142
0.1306142
0.1439965
0.1439965
0.1577773
0.1577773
0.1718832
0.1718832
0.1862398
0.1862398
0.200772
0.200772
0.2154052
0.2154052
0.230066
0.230066
0.2446824
0.2446824
0.2591844
0.2591844
0.2735039
0.2735039
0.2875753
0.2875753
0.3013351
0.3013351
0.314722
0.314722
0.3276774
0.3276774
0.3401446
0.3401446
0.3520694
0.3520694
0.3634001
0.3634001
0.3740875
0.3740875
0.384085
0.384085
0.3933491
0.3933491
0.4018395
0.4018395
0.4095199
0.4095199
0.4163581
0.4163581
0.4223272
0.4223272
0.4274062
0.4274062
0.4315809
0.4315809
0.4348451
0.4348451
0.4372017
0.4372017
0.4386635
0.4386635
0.4392541
0.4392541
0.4390087
0.4390087
0.4379727
0.4379727
0.4362003
0.4362003
0.4337502
0.4337502
0.4306782
0.4306782
0.4270262
0.4270262
0.4228076
0.4228076
0.417987
0.4179869
0.4124563
0.4124563
0.4060045
0.4060045
0.3984627
0.3984627
0.3906333
0.3906333
0.3832314
0.3832314
0.3768918
0.3768918
0.3721769
0.3721769
0.3695822
0.3695822
)
;

boundaryField
{
    leftandright
    {
        type            cyclic;
        value           nonuniform List<scalar> 
150
(
4.061475e-08
2.056445e-06
1.330137e-05
4.744007e-05
0.0001249661
0.0002734565
0.0005276115
0.0009290419
0.001525771
0.002371445
0.003524263
0.00504572
0.006999242
0.009448905
0.01245835
0.01609006
0.02040504
0.02545825
0.03127301
0.03785456
0.04521741
0.0533662
0.06229512
0.0719876
0.08241636
0.09354399
0.1053238
0.1177011
0.1306142
0.1439965
0.1577773
0.1718832
0.1862398
0.200772
0.2154052
0.230066
0.2446824
0.2591844
0.2735039
0.2875753
0.3013351
0.314722
0.3276774
0.3401446
0.3520694
0.3634001
0.3740875
0.384085
0.3933491
0.4018395
0.4095199
0.4163581
0.4223272
0.4274062
0.4315809
0.4348451
0.4372017
0.4386635
0.4392541
0.4390087
0.4379727
0.4362003
0.4337502
0.4306782
0.4270262
0.4228076
0.4179869
0.4124563
0.4060045
0.3984627
0.3906333
0.3832314
0.3768918
0.3721769
0.3695822
4.061475e-08
2.056445e-06
1.330137e-05
4.744007e-05
0.0001249661
0.0002734565
0.0005276115
0.0009290419
0.001525771
0.002371445
0.003524263
0.00504572
0.006999242
0.009448905
0.01245835
0.01609006
0.02040504
0.02545825
0.03127301
0.03785456
0.04521741
0.0533662
0.06229512
0.0719876
0.08241636
0.09354399
0.1053238
0.1177011
0.1306142
0.1439965
0.1577773
0.1718832
0.1862398
0.200772
0.2154052
0.230066
0.2446824
0.2591844
0.2735039
0.2875753
0.3013351
0.314722
0.3276774
0.3401446
0.3520694
0.3634001
0.3740875
0.384085
0.3933491
0.4018395
0.4095199
0.4163581
0.4223272
0.4274062
0.4315809
0.4348451
0.4372017
0.4386635
0.4392541
0.4390087
0.4379727
0.4362003
0.4337502
0.4306782
0.4270262
0.4228076
0.4179869
0.4124563
0.4060045
0.3984627
0.3906333
0.3832314
0.3768918
0.3721769
0.3695822
)
;
    }
    wall
    {
        type            fixedValue;
        value           uniform 1e-10;
    }
    frontAndBack
    {
        type            empty;
    }
    middle
    {
        type            symmetryPlane;
        value           nonuniform List<scalar> 2(0.3695822 0.3695822);
    }
}


// ************************************************************************* //
