/*--------------------------------*- C++ -*----------------------------------*\
| =========                 |                                                 |
| \\      /  F ield         | foam-extend: Open Source CFD                    |
|  \\    /   O peration     | Version:     4.0                                |
|   \\  /    A nd           | Web:         http://www.foam-extend.org         |
|    \\/     M anipulation  |                                                 |
\*---------------------------------------------------------------------------*/
FoamFile
{
    version     2.0;
    format      ascii;
    class       regIOobject;
    location    "100/uniform";
    object      profilingInfo;
}
// * * * * * * * * * * * * * * * * * * * * * * * * * * * * * * * * * * * * * //

profilingInfo
(

    {
        id              24;
        parentId        22;
        description     "Foam::Time::writeObject - outputTime";
        calls           1;
        totalTime       0.012212;
        childTime       0;
        onStack         1;
    }

    {
        id              22;
        parentId        1;
        description     "Foam::Time::writeObject";
        calls           100;
        totalTime       0.0124;
        childTime       0.012212;
        onStack         1;
    }

    {
        id              1;
        description     "application::main";
        calls           1;
        totalTime       0.639099;
        childTime       0.124263;
        onStack         1;
    }

    {
        id              3;
        parentId        2;
        description     "functionObjectList::read";
        calls           1;
        totalTime       4e-06;
        childTime       0;
        onStack         0;
    }

    {
        id              23;
        parentId        1;
        description     "functionObjects_.execute()";
        calls           99;
        totalTime       0.00011;
        childTime       0;
        onStack         0;
    }

    {
        id              2;
        parentId        1;
        description     "functionObjects_.start()";
        calls           1;
        totalTime       1.2e-05;
        childTime       4e-06;
        onStack         0;
    }

    {
        id              17;
        parentId        1;
        description     "fvMatrix::solve_C";
        calls           200;
        totalTime       0.025763;
        childTime       0.005974;
        onStack         0;
    }

    {
        id              4;
        parentId        1;
        description     "fvMatrix::solve_U";
        calls           200;
        totalTime       0.021332;
        childTime       0.006401;
        onStack         0;
    }

    {
        id              9;
        parentId        1;
        description     "fvMatrix::solve_epsilon";
        calls           200;
        totalTime       0.013075;
        childTime       0.003465;
        onStack         0;
    }

    {
        id              13;
        parentId        1;
        description     "fvMatrix::solve_f";
        calls           200;
        totalTime       0.012127;
        childTime       0.004506;
        onStack         0;
    }

    {
        id              11;
        parentId        1;
        description     "fvMatrix::solve_k";
        calls           200;
        totalTime       0.010789;
        childTime       0.003147;
        onStack         0;
    }

    {
        id              7;
        parentId        1;
        description     "fvMatrix::solve_p";
        calls           200;
        totalTime       0.01814;
        childTime       0.010057;
        onStack         0;
    }

    {
        id              15;
        parentId        1;
        description     "fvMatrix::solve_v2";
        calls           200;
        totalTime       0.010515;
        childTime       0.003086;
        onStack         0;
    }

    {
        id              18;
        parentId        17;
        description     "lduMatrix::solver_Cxx";
        calls           200;
        totalTime       0.001993;
        childTime       0;
        onStack         0;
    }

    {
        id              19;
        parentId        17;
        description     "lduMatrix::solver_Cxy";
        calls           200;
        totalTime       0.001371;
        childTime       0;
        onStack         0;
    }

    {
        id              20;
        parentId        17;
        description     "lduMatrix::solver_Cyy";
        calls           200;
        totalTime       0.001332;
        childTime       0;
        onStack         0;
    }

    {
        id              21;
        parentId        17;
        description     "lduMatrix::solver_Czz";
        calls           200;
        totalTime       0.001278;
        childTime       0;
        onStack         0;
    }

    {
        id              5;
        parentId        4;
        description     "lduMatrix::solver_Ux";
        calls           200;
        totalTime       0.003616;
        childTime       0;
        onStack         0;
    }

    {
        id              6;
        parentId        4;
        description     "lduMatrix::solver_Uy";
        calls           200;
        totalTime       0.002785;
        childTime       0;
        onStack         0;
    }

    {
        id              10;
        parentId        9;
        description     "lduMatrix::solver_epsilon";
        calls           200;
        totalTime       0.003465;
        childTime       0;
        onStack         0;
    }

    {
        id              14;
        parentId        13;
        description     "lduMatrix::solver_f";
        calls           200;
        totalTime       0.004506;
        childTime       0;
        onStack         0;
    }

    {
        id              12;
        parentId        11;
        description     "lduMatrix::solver_k";
        calls           200;
        totalTime       0.003147;
        childTime       0;
        onStack         0;
    }

    {
        id              8;
        parentId        7;
        description     "lduMatrix::solver_p";
        calls           200;
        totalTime       0.010057;
        childTime       0;
        onStack         0;
    }

    {
        id              16;
        parentId        15;
        description     "lduMatrix::solver_v2";
        calls           200;
        totalTime       0.003086;
        childTime       0;
        onStack         0;
    }
);


// ************************************************************************* //
