/*--------------------------------*- C++ -*----------------------------------*\
| =========                 |                                                 |
| \\      /  F ield         | foam-extend: Open Source CFD                    |
|  \\    /   O peration     | Version:     4.0                                |
|   \\  /    A nd           | Web:         http://www.foam-extend.org         |
|    \\/     M anipulation  |                                                 |
\*---------------------------------------------------------------------------*/
FoamFile
{
    version     2.0;
    format      ascii;
    class       regIOobject;
    location    "100/uniform";
    object      profilingInfo;
}
// * * * * * * * * * * * * * * * * * * * * * * * * * * * * * * * * * * * * * //

profilingInfo
(

    {
        id              24;
        parentId        22;
        description     "Foam::Time::writeObject - outputTime";
        calls           1;
        totalTime       0.009491;
        childTime       0;
        onStack         1;
    }

    {
        id              22;
        parentId        1;
        description     "Foam::Time::writeObject";
        calls           100;
        totalTime       0.009691;
        childTime       0.009491;
        onStack         1;
    }

    {
        id              1;
        description     "application::main";
        calls           1;
        totalTime       0.644558;
        childTime       0.126307;
        onStack         1;
    }

    {
        id              3;
        parentId        2;
        description     "functionObjectList::read";
        calls           1;
        totalTime       3e-06;
        childTime       0;
        onStack         0;
    }

    {
        id              23;
        parentId        1;
        description     "functionObjects_.execute()";
        calls           99;
        totalTime       0.000111;
        childTime       0;
        onStack         0;
    }

    {
        id              2;
        parentId        1;
        description     "functionObjects_.start()";
        calls           1;
        totalTime       1.1e-05;
        childTime       3e-06;
        onStack         0;
    }

    {
        id              17;
        parentId        1;
        description     "fvMatrix::solve_C";
        calls           200;
        totalTime       0.029932;
        childTime       0.009674;
        onStack         0;
    }

    {
        id              4;
        parentId        1;
        description     "fvMatrix::solve_U";
        calls           200;
        totalTime       0.021472;
        childTime       0.006409;
        onStack         0;
    }

    {
        id              9;
        parentId        1;
        description     "fvMatrix::solve_epsilon";
        calls           200;
        totalTime       0.013094;
        childTime       0.003425;
        onStack         0;
    }

    {
        id              13;
        parentId        1;
        description     "fvMatrix::solve_f";
        calls           200;
        totalTime       0.012339;
        childTime       0.004544;
        onStack         0;
    }

    {
        id              11;
        parentId        1;
        description     "fvMatrix::solve_k";
        calls           200;
        totalTime       0.010999;
        childTime       0.003166;
        onStack         0;
    }

    {
        id              7;
        parentId        1;
        description     "fvMatrix::solve_p";
        calls           200;
        totalTime       0.017909;
        childTime       0.009798;
        onStack         0;
    }

    {
        id              15;
        parentId        1;
        description     "fvMatrix::solve_v2";
        calls           200;
        totalTime       0.010749;
        childTime       0.003184;
        onStack         0;
    }

    {
        id              18;
        parentId        17;
        description     "lduMatrix::solver_Cxx";
        calls           200;
        totalTime       0.002527;
        childTime       0;
        onStack         0;
    }

    {
        id              19;
        parentId        17;
        description     "lduMatrix::solver_Cxy";
        calls           200;
        totalTime       0.002764;
        childTime       0;
        onStack         0;
    }

    {
        id              20;
        parentId        17;
        description     "lduMatrix::solver_Cyy";
        calls           200;
        totalTime       0.002567;
        childTime       0;
        onStack         0;
    }

    {
        id              21;
        parentId        17;
        description     "lduMatrix::solver_Czz";
        calls           200;
        totalTime       0.001816;
        childTime       0;
        onStack         0;
    }

    {
        id              5;
        parentId        4;
        description     "lduMatrix::solver_Ux";
        calls           200;
        totalTime       0.003689;
        childTime       0;
        onStack         0;
    }

    {
        id              6;
        parentId        4;
        description     "lduMatrix::solver_Uy";
        calls           200;
        totalTime       0.00272;
        childTime       0;
        onStack         0;
    }

    {
        id              10;
        parentId        9;
        description     "lduMatrix::solver_epsilon";
        calls           200;
        totalTime       0.003425;
        childTime       0;
        onStack         0;
    }

    {
        id              14;
        parentId        13;
        description     "lduMatrix::solver_f";
        calls           200;
        totalTime       0.004544;
        childTime       0;
        onStack         0;
    }

    {
        id              12;
        parentId        11;
        description     "lduMatrix::solver_k";
        calls           200;
        totalTime       0.003166;
        childTime       0;
        onStack         0;
    }

    {
        id              8;
        parentId        7;
        description     "lduMatrix::solver_p";
        calls           200;
        totalTime       0.009798;
        childTime       0;
        onStack         0;
    }

    {
        id              16;
        parentId        15;
        description     "lduMatrix::solver_v2";
        calls           200;
        totalTime       0.003184;
        childTime       0;
        onStack         0;
    }
);


// ************************************************************************* //
