/*--------------------------------*- C++ -*----------------------------------*\
| =========                 |                                                 |
| \\      /  F ield         | foam-extend: Open Source CFD                    |
|  \\    /   O peration     | Version:     4.0                                |
|   \\  /    A nd           | Web:         http://www.foam-extend.org         |
|    \\/     M anipulation  |                                                 |
\*---------------------------------------------------------------------------*/
FoamFile
{
    version     2.0;
    format      ascii;
    class       volSymmTensorField;
    location    "100";
    object      C;
}
// * * * * * * * * * * * * * * * * * * * * * * * * * * * * * * * * * * * * * //

dimensions      [0 0 0 0 0 0 0];

internalField   nonuniform List<symmTensor> 
150
(
(334.5944 10.26049 0 0.6295943 0 0.6295451)
(334.6019 10.26007 0 0.6295854 0 0.6295386)
(334.447 10.25836 0 0.6297135 0 0.6296507)
(334.4608 10.25836 0 0.6297047 0 0.6296533)
(334.1948 10.25565 0 0.6299622 0 0.6298904)
(334.1988 10.25575 0 0.6299555 0 0.6298928)
(333.8335 10.25281 0 0.6303531 0 0.6302619)
(333.8346 10.25293 0 0.6303486 0 0.6302625)
(333.3679 10.25004 0 0.6309036 0 0.6307714)
(333.3687 10.2501 0 0.6309006 0 0.630772)
(332.784 10.2472 0 0.6316431 0 0.6314369)
(332.7848 10.24719 0 0.6316411 0 0.6314381)
(332.0514 10.24398 0 0.6326175 0 0.6322851)
(332.0523 10.24393 0 0.6326162 0 0.6322868)
(331.1279 10.24002 0 0.6338929 0 0.6333518)
(331.1288 10.23994 0 0.6338919 0 0.6333538)
(329.9638 10.23496 0 0.6355556 0 0.6346803)
(329.9648 10.23487 0 0.6355548 0 0.6346824)
(328.5074 10.22856 0 0.6377113 0 0.6363187)
(328.5083 10.22847 0 0.6377106 0 0.6363209)
(326.7106 10.22075 0 0.6404808 0 0.6383153)
(326.7115 10.22068 0 0.6404802 0 0.6383174)
(324.5354 10.21176 0 0.6439949 0 0.640715)
(324.5363 10.2117 0 0.6439944 0 0.640717)
(321.9581 10.20214 0 0.6483906 0 0.643558)
(321.9589 10.20211 0 0.6483903 0 0.6435599)
(318.9674 10.19288 0 0.6538148 0 0.6468849)
(318.9682 10.19287 0 0.6538146 0 0.6468866)
(315.5489 10.1853 0 0.6604467 0 0.6507544)
(315.5496 10.1853 0 0.6604467 0 0.650756)
(311.6302 10.18031 0 0.6685649 0 0.6552796)
(311.6308 10.18033 0 0.6685651 0 0.6552809)
(306.9246 10.17447 0 0.6786653 0 0.6606698)
(306.9252 10.1745 0 0.6786657 0 0.660671)
(301.0427 10.16101 0 0.6916056 0 0.6671668)
(301.0431 10.16105 0 0.6916062 0 0.6671679)
(293.8942 10.13854 0 0.7077263 0 0.6748671)
(293.8945 10.13858 0 0.7077272 0 0.6748681)
(285.7363 10.11128 0 0.7269076 0 0.6836623)
(285.7367 10.11131 0 0.7269086 0 0.6836633)
(276.8162 10.08119 0 0.7490537 0 0.693371)
(276.8165 10.08122 0 0.7490549 0 0.693372)
(267.2687 10.04708 0 0.7741118 0 0.7038356)
(267.269 10.04713 0 0.7741131 0 0.7038367)
(257.1873 10.00704 0 0.8020542 0 0.7149309)
(257.1876 10.00707 0 0.8020556 0 0.714932)
(246.6541 9.959043 0 0.8328552 0 0.726551)
(246.6544 9.959076 0 0.8328565 0 0.7265522)
(235.7497 9.901142 0 0.8664673 0 0.7385985)
(235.7499 9.901172 0 0.8664686 0 0.7385997)
(224.5556 9.831367 0 0.9028029 0 0.7509788)
(224.5559 9.831395 0 0.9028043 0 0.7509802)
(213.154 9.747753 0 0.9417204 0 0.7635989)
(213.1543 9.747779 0 0.9417217 0 0.7636005)
(201.6263 9.648368 0 0.9830128 0 0.776367)
(201.6266 9.648391 0 0.983014 0 0.7763685)
(190.0522 9.531368 0 1.026399 0 0.7891933)
(190.0523 9.531389 0 1.0264 0 0.7891949)
(178.5083 9.395065 0 1.071517 0 0.8019918)
(178.5085 9.395084 0 1.071519 0 0.8019934)
(167.0675 9.23801 0 1.117926 0 0.8146803)
(167.0678 9.238027 0 1.117927 0 0.814682)
(155.7985 9.059071 0 1.1651 0 0.8271823)
(155.7987 9.059085 0 1.165101 0 0.8271838)
(144.7645 8.857514 0 1.212444 0 0.8394269)
(144.7646 8.857526 0 1.212445 0 0.8394282)
(134.0229 8.63307 0 1.2593 0 0.8513496)
(134.023 8.63308 0 1.259301 0 0.8513508)
(123.6255 8.386004 0 1.304966 0 0.8628927)
(123.6257 8.386011 0 1.304966 0 0.8628938)
(113.6179 8.117141 0 1.34872 0 0.8740055)
(113.6179 8.117146 0 1.348721 0 0.8740064)
(104.0393 7.827886 0 1.389848 0 0.8846444)
(104.0393 7.827888 0 1.389848 0 0.884645)
(94.92281 7.520211 0 1.427666 0 0.8947727)
(94.92281 7.520211 0 1.427668 0 0.894773)
(86.29485 7.196606 0 1.461562 0 0.9043611)
(86.29484 7.196606 0 1.461562 0 0.9043612)
(78.17537 6.860013 0 1.491009 0 0.9133877)
(78.17535 6.860011 0 1.491009 0 0.9133877)
(70.57773 6.513711 0 1.515604 0 0.9218379)
(70.57769 6.513708 0 1.515605 0 0.9218375)
(63.50862 6.161205 0 1.535074 0 0.929704)
(63.50859 6.161202 0 1.535074 0 0.9297035)
(56.96821 5.806079 0 1.549288 0 0.9369859)
(56.96818 5.806076 0 1.549288 0 0.9369854)
(50.95036 5.451863 0 1.558262 0 0.9436905)
(50.95034 5.45186 0 1.558262 0 0.9436897)
(45.44295 5.10189 0 1.562143 0 0.9498309)
(45.44293 5.101888 0 1.562143 0 0.94983)
(40.42844 4.759183 0 1.561199 0 0.9554262)
(40.42841 4.759179 0 1.561198 0 0.9554256)
(35.88464 4.426358 0 1.555788 0 0.960501)
(35.88461 4.426356 0 1.555788 0 0.9605004)
(31.7855 4.10557 0 1.546342 0 0.9650837)
(31.78548 4.105569 0 1.546342 0 0.9650832)
(28.10217 3.798477 0 1.533331 0 0.9692061)
(28.10216 3.798477 0 1.53333 0 0.9692057)
(24.80392 3.506243 0 1.517243 0 0.972902)
(24.80392 3.506242 0 1.517243 0 0.9729016)
(21.85915 3.229566 0 1.498559 0 0.976206)
(21.85915 3.229566 0 1.498559 0 0.9762059)
(19.23626 2.968728 0 1.477739 0 0.9791532)
(19.23627 2.968728 0 1.477739 0 0.9791532)
(16.90442 2.72365 0 1.455206 0 0.9817773)
(16.90442 2.723652 0 1.455206 0 0.9817774)
(14.83417 2.493969 0 1.431342 0 0.9841111)
(14.83417 2.493969 0 1.431342 0 0.9841112)
(12.9979 2.279091 0 1.406479 0 0.9861848)
(12.99791 2.279092 0 1.406479 0 0.986185)
(11.37019 2.078267 0 1.380907 0 0.9880268)
(11.3702 2.078267 0 1.380907 0 0.9880269)
(9.927903 1.890647 0 1.354869 0 0.9896625)
(9.927906 1.890648 0 1.354869 0 0.9896626)
(8.650403 1.715338 0 1.328572 0 0.9911147)
(8.650405 1.715339 0 1.328572 0 0.9911147)
(7.519453 1.551446 0 1.302188 0 0.9924036)
(7.519455 1.551446 0 1.302188 0 0.9924036)
(6.51917 1.398113 0 1.275864 0 0.993547)
(6.519172 1.398113 0 1.275864 0 0.9935469)
(5.635896 1.254564 0 1.249732 0 0.9945597)
(5.635898 1.254564 0 1.249732 0 0.9945597)
(4.857998 1.120124 0 1.223914 0 0.9954547)
(4.857999 1.120124 0 1.223914 0 0.9954547)
(4.175641 0.9942427 0 1.198535 0 0.996243)
(4.175642 0.9942429 0 1.198535 0 0.9962429)
(3.580496 0.8765045 0 1.17373 0 0.9969336)
(3.580497 0.8765046 0 1.17373 0 0.9969334)
(3.065424 0.7666314 0 1.149658 0 0.9975338)
(3.065424 0.7666316 0 1.149658 0 0.9975338)
(2.624053 0.66445 0 1.126493 0 0.9980507)
(2.624054 0.6644503 0 1.126493 0 0.9980508)
(2.250598 0.5699044 0 1.104493 0 0.9984903)
(2.250599 0.5699049 0 1.104493 0 0.9984905)
(1.939055 0.4828553 0 1.083807 0 0.9988592)
(1.939057 0.4828558 0 1.083807 0 0.9988596)
(1.683763 0.4032216 0 1.064995 0 0.9991639)
(1.683765 0.4032222 0 1.064995 0 0.9991649)
(1.475852 0.3297213 0 1.047026 0 0.9994161)
(1.475853 0.3297213 0 1.047027 0 0.9994173)
(1.316083 0.2631998 0 1.034737 0 0.9996108)
(1.316083 0.2631989 0 1.034737 0 0.999611)
(1.178838 0.1980005 0 1.013799 0 0.9997877)
(1.178835 0.1979988 0 1.013798 0 0.9997854)
(1.122189 0.1447241 0 1.032141 0 0.9998305)
(1.122185 0.144724 0 1.032138 0 0.9998251)
(0.9935655 0.08000531 0 0.9691366 0 0.9999984)
(0.9935664 0.08000654 0 0.969137 0 0.9999994)
(1.027559 0.02878994 0 1.0207 0 0.999947)
(1.027558 0.02878976 0 1.020698 0 0.9999464)
)
;

boundaryField
{
    leftandright
    {
        type            cyclic;
        value           nonuniform List<symmTensor> 
150
(
(334.5981 10.26028 0 0.6295898 0 0.6295418)
(334.4539 10.25836 0 0.6297091 0 0.629652)
(334.1968 10.2557 0 0.6299589 0 0.6298916)
(333.8341 10.25287 0 0.6303508 0 0.6302622)
(333.3683 10.25007 0 0.6309021 0 0.6307717)
(332.7844 10.2472 0 0.6316421 0 0.6314375)
(332.0518 10.24395 0 0.6326168 0 0.632286)
(331.1283 10.23998 0 0.6338924 0 0.6333528)
(329.9643 10.23492 0 0.6355552 0 0.6346814)
(328.5079 10.22852 0 0.6377109 0 0.6363198)
(326.7111 10.22072 0 0.6404805 0 0.6383163)
(324.5359 10.21173 0 0.6439947 0 0.640716)
(321.9585 10.20213 0 0.6483905 0 0.643559)
(318.9678 10.19287 0 0.6538147 0 0.6468857)
(315.5492 10.1853 0 0.6604467 0 0.6507552)
(311.6305 10.18032 0 0.668565 0 0.6552802)
(306.9249 10.17448 0 0.6786655 0 0.6606704)
(301.0429 10.16103 0 0.6916059 0 0.6671673)
(293.8943 10.13856 0 0.7077267 0 0.6748676)
(285.7365 10.1113 0 0.7269081 0 0.6836628)
(276.8163 10.0812 0 0.7490543 0 0.6933715)
(267.2689 10.0471 0 0.7741124 0 0.7038361)
(257.1874 10.00706 0 0.8020549 0 0.7149315)
(246.6542 9.959059 0 0.8328558 0 0.7265516)
(235.7498 9.901157 0 0.8664679 0 0.7385991)
(224.5557 9.831381 0 0.9028036 0 0.7509795)
(213.1541 9.747766 0 0.9417211 0 0.7635997)
(201.6264 9.64838 0 0.9830134 0 0.7763677)
(190.0522 9.531379 0 1.026399 0 0.7891941)
(178.5084 9.395075 0 1.071518 0 0.8019926)
(167.0677 9.238019 0 1.117926 0 0.8146811)
(155.7986 9.059078 0 1.165101 0 0.8271831)
(144.7646 8.85752 0 1.212445 0 0.8394276)
(134.0229 8.633075 0 1.2593 0 0.8513502)
(123.6256 8.386008 0 1.304966 0 0.8628933)
(113.6179 8.117144 0 1.348721 0 0.8740059)
(104.0393 7.827887 0 1.389848 0 0.8846447)
(94.92281 7.520211 0 1.427667 0 0.8947728)
(86.29484 7.196606 0 1.461562 0 0.9043612)
(78.17536 6.860012 0 1.491009 0 0.9133877)
(70.57771 6.513709 0 1.515604 0 0.9218377)
(63.5086 6.161204 0 1.535074 0 0.9297037)
(56.9682 5.806078 0 1.549288 0 0.9369857)
(50.95035 5.451861 0 1.558262 0 0.9436901)
(45.44294 5.101889 0 1.562143 0 0.9498305)
(40.42843 4.759181 0 1.561198 0 0.9554259)
(35.88462 4.426357 0 1.555788 0 0.9605007)
(31.78549 4.10557 0 1.546342 0 0.9650834)
(28.10217 3.798477 0 1.533331 0 0.9692059)
(24.80392 3.506243 0 1.517243 0 0.9729018)
(21.85915 3.229566 0 1.498559 0 0.9762059)
(19.23626 2.968728 0 1.477739 0 0.9791532)
(16.90442 2.723651 0 1.455206 0 0.9817774)
(14.83417 2.493969 0 1.431342 0 0.9841112)
(12.99791 2.279092 0 1.406479 0 0.9861849)
(11.37019 2.078267 0 1.380907 0 0.9880269)
(9.927904 1.890648 0 1.354869 0 0.9896625)
(8.650404 1.715339 0 1.328572 0 0.9911147)
(7.519454 1.551446 0 1.302188 0 0.9924036)
(6.519171 1.398113 0 1.275864 0 0.9935469)
(5.635897 1.254564 0 1.249732 0 0.9945597)
(4.857998 1.120124 0 1.223914 0 0.9954547)
(4.175641 0.9942428 0 1.198535 0 0.996243)
(3.580496 0.8765045 0 1.17373 0 0.9969335)
(3.065424 0.7666315 0 1.149658 0 0.9975338)
(2.624053 0.6644501 0 1.126493 0 0.9980508)
(2.250598 0.5699046 0 1.104493 0 0.9984904)
(1.939056 0.4828556 0 1.083807 0 0.9988594)
(1.683764 0.4032219 0 1.064995 0 0.9991644)
(1.475853 0.3297213 0 1.047027 0 0.9994167)
(1.316083 0.2631994 0 1.034737 0 0.9996109)
(1.178836 0.1979996 0 1.013799 0 0.9997866)
(1.122187 0.1447241 0 1.03214 0 0.9998278)
(0.9935659 0.08000593 0 0.9691368 0 0.9999989)
(1.027558 0.02878985 0 1.020699 0 0.9999467)
(334.5981 10.26028 0 0.6295898 0 0.6295418)
(334.4539 10.25836 0 0.6297091 0 0.629652)
(334.1968 10.2557 0 0.6299589 0 0.6298916)
(333.8341 10.25287 0 0.6303508 0 0.6302622)
(333.3683 10.25007 0 0.6309021 0 0.6307717)
(332.7844 10.2472 0 0.6316421 0 0.6314375)
(332.0518 10.24395 0 0.6326168 0 0.632286)
(331.1283 10.23998 0 0.6338924 0 0.6333528)
(329.9643 10.23492 0 0.6355552 0 0.6346814)
(328.5079 10.22852 0 0.6377109 0 0.6363198)
(326.7111 10.22072 0 0.6404805 0 0.6383163)
(324.5359 10.21173 0 0.6439947 0 0.640716)
(321.9585 10.20213 0 0.6483905 0 0.643559)
(318.9678 10.19287 0 0.6538147 0 0.6468857)
(315.5492 10.1853 0 0.6604467 0 0.6507552)
(311.6305 10.18032 0 0.668565 0 0.6552802)
(306.9249 10.17448 0 0.6786655 0 0.6606704)
(301.0429 10.16103 0 0.6916059 0 0.6671673)
(293.8943 10.13856 0 0.7077267 0 0.6748676)
(285.7365 10.1113 0 0.7269081 0 0.6836628)
(276.8163 10.0812 0 0.7490543 0 0.6933715)
(267.2689 10.0471 0 0.7741124 0 0.7038361)
(257.1874 10.00706 0 0.8020549 0 0.7149315)
(246.6542 9.959059 0 0.8328558 0 0.7265516)
(235.7498 9.901157 0 0.8664679 0 0.7385991)
(224.5557 9.831381 0 0.9028036 0 0.7509795)
(213.1541 9.747766 0 0.9417211 0 0.7635997)
(201.6264 9.64838 0 0.9830134 0 0.7763677)
(190.0522 9.531379 0 1.026399 0 0.7891941)
(178.5084 9.395075 0 1.071518 0 0.8019926)
(167.0677 9.238019 0 1.117926 0 0.8146811)
(155.7986 9.059078 0 1.165101 0 0.8271831)
(144.7646 8.85752 0 1.212445 0 0.8394276)
(134.0229 8.633075 0 1.2593 0 0.8513502)
(123.6256 8.386008 0 1.304966 0 0.8628933)
(113.6179 8.117144 0 1.348721 0 0.8740059)
(104.0393 7.827887 0 1.389848 0 0.8846447)
(94.92281 7.520211 0 1.427667 0 0.8947728)
(86.29484 7.196606 0 1.461562 0 0.9043612)
(78.17536 6.860012 0 1.491009 0 0.9133877)
(70.57771 6.513709 0 1.515604 0 0.9218377)
(63.5086 6.161204 0 1.535074 0 0.9297037)
(56.9682 5.806078 0 1.549288 0 0.9369857)
(50.95035 5.451861 0 1.558262 0 0.9436901)
(45.44294 5.101889 0 1.562143 0 0.9498305)
(40.42843 4.759181 0 1.561198 0 0.9554259)
(35.88462 4.426357 0 1.555788 0 0.9605007)
(31.78549 4.10557 0 1.546342 0 0.9650834)
(28.10217 3.798477 0 1.533331 0 0.9692059)
(24.80392 3.506243 0 1.517243 0 0.9729018)
(21.85915 3.229566 0 1.498559 0 0.9762059)
(19.23626 2.968728 0 1.477739 0 0.9791532)
(16.90442 2.723651 0 1.455206 0 0.9817774)
(14.83417 2.493969 0 1.431342 0 0.9841112)
(12.99791 2.279092 0 1.406479 0 0.9861849)
(11.37019 2.078267 0 1.380907 0 0.9880269)
(9.927904 1.890648 0 1.354869 0 0.9896625)
(8.650404 1.715339 0 1.328572 0 0.9911147)
(7.519454 1.551446 0 1.302188 0 0.9924036)
(6.519171 1.398113 0 1.275864 0 0.9935469)
(5.635897 1.254564 0 1.249732 0 0.9945597)
(4.857998 1.120124 0 1.223914 0 0.9954547)
(4.175641 0.9942428 0 1.198535 0 0.996243)
(3.580496 0.8765045 0 1.17373 0 0.9969335)
(3.065424 0.7666315 0 1.149658 0 0.9975338)
(2.624053 0.6644501 0 1.126493 0 0.9980508)
(2.250598 0.5699046 0 1.104493 0 0.9984904)
(1.939056 0.4828556 0 1.083807 0 0.9988594)
(1.683764 0.4032219 0 1.064995 0 0.9991644)
(1.475853 0.3297213 0 1.047027 0 0.9994167)
(1.316083 0.2631994 0 1.034737 0 0.9996109)
(1.178836 0.1979996 0 1.013799 0 0.9997866)
(1.122187 0.1447241 0 1.03214 0 0.9998278)
(0.9935659 0.08000593 0 0.9691368 0 0.9999989)
(1.027558 0.02878985 0 1.020699 0 0.9999467)
)
;
    }
    wall
    {
        type            zeroGradient;
    }
    frontAndBack
    {
        type            empty;
    }
    middle
    {
        type            symmetryPlane;
        value           nonuniform List<symmTensor> 2((1.027559 0 0 1.0207 0 0.999947) (1.027558 0 0 1.020698 0 0.9999464));
    }
}


// ************************************************************************* //
