/*--------------------------------*- C++ -*----------------------------------*\
| =========                 |                                                 |
| \\      /  F ield         | foam-extend: Open Source CFD                    |
|  \\    /   O peration     | Version:     4.0                                |
|   \\  /    A nd           | Web:         http://www.foam-extend.org         |
|    \\/     M anipulation  |                                                 |
\*---------------------------------------------------------------------------*/
FoamFile
{
    version     2.0;
    format      ascii;
    class       volScalarField;
    location    "100";
    object      epsilonPlus;
}
// * * * * * * * * * * * * * * * * * * * * * * * * * * * * * * * * * * * * * //

dimensions      [0 4 -4 0 0 0 0];

internalField   nonuniform List<scalar> 
150
(
0.1647918
0.1647918
0.1545669
0.1545669
0.1450494
0.1450494
0.1362804
0.1362804
0.1283041
0.1283041
0.121168
0.121168
0.1149228
0.1149229
0.1096218
0.1096218
0.1053183
0.1053183
0.102064
0.102064
0.09990482
0.09990482
0.09887711
0.09887711
0.09900361
0.09900361
0.1002901
0.1002901
0.1027235
0.1027235
0.1062721
0.1062721
0.1108876
0.1108876
0.1165019
0.1165019
0.1228165
0.1228165
0.1294537
0.1294537
0.1360676
0.1360676
0.1423431
0.1423431
0.1480067
0.1480067
0.1528356
0.1528356
0.1566627
0.1566627
0.159379
0.159379
0.1609313
0.1609313
0.1613175
0.1613175
0.1605793
0.1605793
0.158793
0.158793
0.1560604
0.1560604
0.1524995
0.1524995
0.1482365
0.1482365
0.1433989
0.1433989
0.1381098
0.1381098
0.1324843
0.1324843
0.1266268
0.1266268
0.1206294
0.1206294
0.1145716
0.1145716
0.1085204
0.1085204
0.102531
0.102531
0.09664795
0.09664796
0.09090608
0.09090609
0.08533189
0.08533189
0.07994472
0.07994472
0.07475791
0.07475791
0.06977986
0.06977986
0.06501495
0.06501495
0.06046437
0.06046437
0.05612687
0.05612687
0.05199932
0.05199932
0.04807728
0.04807728
0.04435544
0.04435544
0.04082799
0.04082799
0.03748894
0.03748894
0.03433244
0.03433244
0.03135297
0.03135297
0.02854556
0.02854556
0.02590593
0.02590593
0.02343061
0.02343061
0.02111694
0.02111694
0.01896311
0.01896311
0.01696801
0.01696801
0.01513105
0.01513105
0.01345186
0.01345186
0.01192996
0.01192996
0.01056433
0.01056433
0.009353123
0.009353123
0.008293387
0.008293387
0.007381736
0.007381736
0.006615635
0.006615635
0.005993998
0.005993998
0.005517419
0.005517419
0.005189244
0.005189244
0.005017094
0.005017094
)
;

boundaryField
{
    leftandright
    {
        type            cyclic;
        value           nonuniform List<scalar> 
150
(
0.1647918
0.1545669
0.1450494
0.1362804
0.1283041
0.121168
0.1149228
0.1096218
0.1053183
0.102064
0.09990482
0.09887711
0.09900361
0.1002901
0.1027235
0.1062721
0.1108876
0.1165019
0.1228165
0.1294537
0.1360676
0.1423431
0.1480067
0.1528356
0.1566627
0.159379
0.1609313
0.1613175
0.1605793
0.158793
0.1560604
0.1524995
0.1482365
0.1433989
0.1381098
0.1324843
0.1266268
0.1206294
0.1145716
0.1085204
0.102531
0.09664796
0.09090609
0.08533189
0.07994472
0.07475791
0.06977986
0.06501495
0.06046437
0.05612687
0.05199932
0.04807728
0.04435544
0.04082799
0.03748894
0.03433244
0.03135297
0.02854556
0.02590593
0.02343061
0.02111694
0.01896311
0.01696801
0.01513105
0.01345186
0.01192996
0.01056433
0.009353123
0.008293387
0.007381736
0.006615635
0.005993998
0.005517419
0.005189244
0.005017094
0.1647918
0.1545669
0.1450494
0.1362804
0.1283041
0.121168
0.1149228
0.1096218
0.1053183
0.102064
0.09990482
0.09887711
0.09900361
0.1002901
0.1027235
0.1062721
0.1108876
0.1165019
0.1228165
0.1294537
0.1360676
0.1423431
0.1480067
0.1528356
0.1566627
0.159379
0.1609313
0.1613175
0.1605793
0.158793
0.1560604
0.1524995
0.1482365
0.1433989
0.1381098
0.1324843
0.1266268
0.1206294
0.1145716
0.1085204
0.102531
0.09664796
0.09090609
0.08533189
0.07994472
0.07475791
0.06977986
0.06501495
0.06046437
0.05612687
0.05199932
0.04807728
0.04435544
0.04082799
0.03748894
0.03433244
0.03135297
0.02854556
0.02590593
0.02343061
0.02111694
0.01896311
0.01696801
0.01513105
0.01345186
0.01192996
0.01056433
0.009353123
0.008293387
0.007381736
0.006615635
0.005993998
0.005517419
0.005189244
0.005017094
)
;
    }
    wall
    {
        type            calculated;
        value           nonuniform List<scalar> 2(0.1703743 0.1703743);
    }
    frontAndBack
    {
        type            empty;
    }
    middle
    {
        type            symmetryPlane;
        value           nonuniform List<scalar> 2(0.005017094 0.005017094);
    }
}


// ************************************************************************* //
