/*--------------------------------*- C++ -*----------------------------------*\
| =========                 |                                                 |
| \\      /  F ield         | foam-extend: Open Source CFD                    |
|  \\    /   O peration     | Version:     4.0                                |
|   \\  /    A nd           | Web:         http://www.foam-extend.org         |
|    \\/     M anipulation  |                                                 |
\*---------------------------------------------------------------------------*/
FoamFile
{
    version     2.0;
    format      ascii;
    class       volScalarField;
    location    "100";
    object      epsilon;
}
// * * * * * * * * * * * * * * * * * * * * * * * * * * * * * * * * * * * * * //

dimensions      [0 2 -3 0 0 0 0];

internalField   nonuniform List<scalar> 
150
(
29.66252
29.66252
27.82204
27.82205
26.1089
26.1089
24.53047
24.53048
23.09473
23.09473
21.81023
21.81023
20.68611
20.68611
19.73192
19.73192
18.95729
18.95729
18.37152
18.37152
17.98287
17.98287
17.79788
17.79788
17.82065
17.82065
18.05222
18.05222
18.49023
18.49024
19.12897
19.12897
19.95977
19.95977
20.97035
20.97035
22.10696
22.10696
23.30166
23.30167
24.49217
24.49217
25.62175
25.62175
26.64121
26.64121
27.5104
27.51041
28.19929
28.19929
28.68822
28.68822
28.96763
28.96763
29.03715
29.03715
28.90428
28.90428
28.58274
28.58275
28.09087
28.09087
27.44991
27.44991
26.68258
26.68258
25.8118
25.8118
24.85977
24.85977
23.84718
23.84718
22.79283
22.79283
21.71329
21.71329
20.62288
20.62289
19.53367
19.53367
18.45558
18.45558
17.39663
17.39663
16.3631
16.3631
15.35974
15.35974
14.39005
14.39005
13.45642
13.45642
12.56037
12.56037
11.70269
11.70269
10.88359
10.88359
10.10284
10.10284
9.359877
9.359877
8.653911
8.653911
7.98398
7.98398
7.349038
7.349037
6.748009
6.748009
6.179839
6.179839
5.643534
5.643534
5.138201
5.138201
4.663068
4.663068
4.21751
4.21751
3.80105
3.80105
3.41336
3.41336
3.054242
3.054242
2.723589
2.723589
2.421335
2.421335
2.147392
2.147392
1.90158
1.90158
1.683562
1.683562
1.49281
1.49281
1.328713
1.328713
1.190814
1.190814
1.07892
1.07892
0.9931354
0.9931353
0.934064
0.9340639
0.9030769
0.9030769
)
;

boundaryField
{
    leftandright
    {
        type            cyclic;
        value           nonuniform List<scalar> 
150
(
29.66252
27.82205
26.1089
24.53048
23.09473
21.81023
20.68611
19.73192
18.95729
18.37152
17.98287
17.79788
17.82065
18.05222
18.49023
19.12897
19.95977
20.97035
22.10696
23.30166
24.49217
25.62175
26.64121
27.5104
28.19929
28.68822
28.96763
29.03715
28.90428
28.58274
28.09087
27.44991
26.68258
25.8118
24.85977
23.84718
22.79283
21.71329
20.62288
19.53367
18.45558
17.39663
16.3631
15.35974
14.39005
13.45642
12.56037
11.70269
10.88359
10.10284
9.359877
8.653911
7.98398
7.349037
6.748009
6.179839
5.643534
5.138201
4.663068
4.21751
3.80105
3.41336
3.054242
2.723589
2.421335
2.147392
1.90158
1.683562
1.49281
1.328713
1.190814
1.07892
0.9931354
0.9340639
0.9030769
29.66252
27.82205
26.1089
24.53048
23.09473
21.81023
20.68611
19.73192
18.95729
18.37152
17.98287
17.79788
17.82065
18.05222
18.49023
19.12897
19.95977
20.97035
22.10696
23.30166
24.49217
25.62175
26.64121
27.5104
28.19929
28.68822
28.96763
29.03715
28.90428
28.58274
28.09087
27.44991
26.68258
25.8118
24.85977
23.84718
22.79283
21.71329
20.62288
19.53367
18.45558
17.39663
16.3631
15.35974
14.39005
13.45642
12.56037
11.70269
10.88359
10.10284
9.359877
8.653911
7.98398
7.349037
6.748009
6.179839
5.643534
5.138201
4.663068
4.21751
3.80105
3.41336
3.054242
2.723589
2.421335
2.147392
1.90158
1.683562
1.49281
1.328713
1.190814
1.07892
0.9931354
0.9340639
0.9030769
)
;
    }
    wall
    {
        type            groovyBC;
        refValue        nonuniform List<scalar> 2(30.66737 30.66737);
        refGradient     uniform 0;
        valueFraction   uniform 1;
        value           nonuniform List<scalar> 2(30.66737 30.66737);
        valueExpression "2*nu*internalField(k)/sqr(mag(delta()))";
        gradientExpression "0";
        fractionExpression "1";
        evaluateDuringConstruction 0;
        variables       "";
        timelines       (
);
        lookuptables    (
);
    }
    frontAndBack
    {
        type            empty;
    }
    middle
    {
        type            symmetryPlane;
        value           nonuniform List<scalar> 2(0.9030769 0.9030769);
    }
}


// ************************************************************************* //
