/*--------------------------------*- C++ -*----------------------------------*\
| =========                 |                                                 |
| \\      /  F ield         | foam-extend: Open Source CFD                    |
|  \\    /   O peration     | Version:     4.0                                |
|   \\  /    A nd           | Web:         http://www.foam-extend.org         |
|    \\/     M anipulation  |                                                 |
\*---------------------------------------------------------------------------*/
FoamFile
{
    version     2.0;
    format      ascii;
    class       volScalarField;
    location    "100";
    object      EtauP;
}
// * * * * * * * * * * * * * * * * * * * * * * * * * * * * * * * * * * * * * //

dimensions      [0 2 -4 0 0 0 0];

internalField   nonuniform List<scalar> 
150
(
1.864406e-05
1.864357e-05
0.0005016636
0.0005016758
0.002360065
0.002360104
0.006903867
0.006903955
0.01584696
0.01584707
0.0312961
0.03129613
0.05571019
0.05571
0.0918207
0.09182012
0.1425067
0.1425057
0.2106266
0.2106252
0.2988205
0.2988189
0.4093153
0.4093139
0.5437688
0.543768
0.7031893
0.7031894
0.8879216
0.8879226
1.097561
1.097564
1.327482
1.327487
1.565359
1.565366
1.799599
1.799607
2.025505
2.025514
2.238607
2.238617
2.433107
2.433119
2.603863
2.603874
2.746763
2.746774
2.8589
2.85891
2.938607
2.938617
2.985409
2.985418
2.999915
2.999924
2.983664
2.983672
2.938941
2.938948
2.8686
2.868607
2.775878
2.775884
2.664235
2.66424
2.537209
2.537212
2.3983
2.398303
2.250876
2.250877
2.098095
2.098096
1.942857
1.942857
1.787758
1.787758
1.635068
1.635067
1.486715
1.486714
1.344283
1.344282
1.209014
1.209013
1.081825
1.081825
0.9633279
0.9633276
0.8538563
0.8538557
0.753501
0.7535007
0.6621477
0.6621475
0.5795154
0.5795153
0.5051955
0.5051955
0.4386896
0.4386896
0.3794422
0.3794422
0.3268691
0.3268692
0.2803824
0.2803824
0.2394071
0.2394072
0.2033956
0.2033956
0.1718366
0.1718366
0.1442603
0.1442604
0.1202413
0.1202413
0.09939794
0.09939794
0.08139117
0.08139116
0.06592047
0.06592046
0.05271977
0.05271977
0.04155167
0.04155168
0.032202
0.032202
0.02447287
0.02447288
0.01818115
0.01818117
0.01314496
0.01314497
0.009200429
0.009200442
0.00613531
0.006135311
0.00393782
0.003937806
0.002063876
0.002063856
0.001614796
0.001614793
-0.0003958179
-0.0003958126
0.0004864832
0.0004864823
)
;

boundaryField
{
    leftandright
    {
        type            cyclic;
        value           nonuniform List<scalar> 
150
(
1.864381e-05
0.0005016697
0.002360085
0.006903911
0.01584701
0.03129611
0.05571009
0.09182041
0.1425062
0.2106259
0.2988197
0.4093146
0.5437684
0.7031893
0.8879221
1.097562
1.327484
1.565362
1.799603
2.02551
2.238612
2.433113
2.603869
2.746768
2.858905
2.938612
2.985414
2.99992
2.983668
2.938945
2.868603
2.775881
2.664237
2.53721
2.398301
2.250876
2.098095
1.942857
1.787758
1.635068
1.486715
1.344283
1.209014
1.081825
0.9633278
0.853856
0.7535009
0.6621476
0.5795153
0.5051955
0.4386896
0.3794422
0.3268692
0.2803824
0.2394071
0.2033956
0.1718366
0.1442603
0.1202413
0.09939794
0.08139117
0.06592047
0.05271977
0.04155168
0.032202
0.02447287
0.01818116
0.01314496
0.009200435
0.00613531
0.003937813
0.002063866
0.001614795
-0.0003958153
0.0004864827
1.864381e-05
0.0005016697
0.002360085
0.006903911
0.01584701
0.03129611
0.05571009
0.09182041
0.1425062
0.2106259
0.2988197
0.4093146
0.5437684
0.7031893
0.8879221
1.097562
1.327484
1.565362
1.799603
2.02551
2.238612
2.433113
2.603869
2.746768
2.858905
2.938612
2.985414
2.99992
2.983668
2.938945
2.868603
2.775881
2.664237
2.53721
2.398301
2.250876
2.098095
1.942857
1.787758
1.635068
1.486715
1.344283
1.209014
1.081825
0.9633278
0.853856
0.7535009
0.6621476
0.5795153
0.5051955
0.4386896
0.3794422
0.3268692
0.2803824
0.2394071
0.2033956
0.1718366
0.1442603
0.1202413
0.09939794
0.08139117
0.06592047
0.05271977
0.04155168
0.032202
0.02447287
0.01818116
0.01314496
0.009200435
0.00613531
0.003937813
0.002063866
0.001614795
-0.0003958153
0.0004864827
)
;
    }
    wall
    {
        type            calculated;
        value           nonuniform List<scalar> 2(8.160329e-09 8.160121e-09);
    }
    frontAndBack
    {
        type            empty;
    }
    middle
    {
        type            symmetryPlane;
        value           nonuniform List<scalar> 2(0.0004864832 0.0004864823);
    }
}


// ************************************************************************* //
