/*--------------------------------*- C++ -*----------------------------------*\
| =========                 |                                                 |
| \\      /  F ield         | foam-extend: Open Source CFD                    |
|  \\    /   O peration     | Version:     4.0                                |
|   \\  /    A nd           | Web:         http://www.foam-extend.org         |
|    \\/     M anipulation  |                                                 |
\*---------------------------------------------------------------------------*/
FoamFile
{
    version     2.0;
    format      ascii;
    class       volScalarField;
    location    "100";
    object      eVyy;
}
// * * * * * * * * * * * * * * * * * * * * * * * * * * * * * * * * * * * * * //

dimensions      [0 2 -3 0 0 0 0];

internalField   nonuniform List<scalar> 
150
(
3.698169e-12
3.698072e-12
8.873603e-10
8.87382e-10
1.409605e-08
1.409629e-08
9.432013e-08
9.432134e-08
4.025597e-07
4.025625e-07
1.300086e-06
1.300088e-06
3.466038e-06
3.466026e-06
8.020251e-06
8.020201e-06
1.662029e-05
1.662018e-05
3.149292e-05
3.149271e-05
5.536355e-05
5.536326e-05
9.127081e-05
9.127049e-05
0.0001422931
0.0001422929
0.0002112559
0.000211256
0.0003004966
0.000300497
0.0004116951
0.0004116961
0.0005443991
0.0005444011
0.0007435663
0.0007435697
0.001003809
0.001003814
0.001306302
0.001306308
0.001650706
0.001650714
0.002035314
0.002035325
0.002457831
0.002457842
0.002915428
0.00291544
0.003404717
0.003404729
0.003921683
0.003921696
0.004461629
0.004461644
0.00501913
0.005019145
0.005588023
0.005588038
0.006161432
0.006161448
0.006731837
0.006731853
0.007291189
0.007291203
0.007831074
0.007831088
0.00834292
0.008342933
0.008818261
0.00881827
0.009249004
0.009249011
0.009627747
0.009627751
0.009948067
0.009948069
0.01020479
0.01020479
0.01039423
0.01039423
0.01051431
0.0105143
0.01056466
0.01056466
0.01054659
0.01054658
0.01046292
0.01046292
0.01031785
0.01031785
0.01011662
0.01011661
0.009865205
0.0098652
0.009570038
0.009570036
0.009237663
0.009237661
0.008874471
0.00887447
0.008486504
0.008486504
0.008079291
0.008079291
0.007657746
0.007657749
0.007226155
0.007226155
0.006788143
0.006788146
0.006346738
0.006346738
0.005904411
0.005904414
0.005463163
0.005463166
0.005024617
0.005024617
0.004590104
0.004590104
0.00416082
0.00416082
0.003737907
0.003737907
0.003322623
0.003322623
0.002916467
0.002916467
0.002521358
0.002521358
0.002139698
0.002139699
0.001774796
0.001774797
0.001430025
0.001430027
0.001110655
0.001110657
0.0008165941
0.0008165942
0.0005734149
0.0005734128
0.000325521
0.0003255179
0.0002722097
0.0002722093
-7.00778e-05
-7.007686e-05
8.848009e-05
8.847993e-05
)
;

boundaryField
{
    leftandright
    {
        type            cyclic;
        value           nonuniform List<scalar> 
150
(
3.69812e-12
8.873711e-10
1.409617e-08
9.432074e-08
4.025611e-07
1.300087e-06
3.466032e-06
8.020226e-06
1.662024e-05
3.149281e-05
5.536341e-05
9.127065e-05
0.000142293
0.000211256
0.0003004968
0.0004116956
0.0005444001
0.000743568
0.001003812
0.001306305
0.00165071
0.002035319
0.002457837
0.002915434
0.003404723
0.003921689
0.004461636
0.005019138
0.005588031
0.00616144
0.006731845
0.007291196
0.007831081
0.008342926
0.008818266
0.009249008
0.009627749
0.009948068
0.01020479
0.01039423
0.01051431
0.01056466
0.01054658
0.01046292
0.01031785
0.01011661
0.009865203
0.009570037
0.009237662
0.00887447
0.008486504
0.008079291
0.007657747
0.007226155
0.006788145
0.006346738
0.005904412
0.005463164
0.005024617
0.004590104
0.00416082
0.003737907
0.003322623
0.002916467
0.002521358
0.002139698
0.001774797
0.001430026
0.001110656
0.0008165941
0.0005734138
0.0003255195
0.0002722095
-7.007733e-05
8.848001e-05
3.69812e-12
8.873711e-10
1.409617e-08
9.432074e-08
4.025611e-07
1.300087e-06
3.466032e-06
8.020226e-06
1.662024e-05
3.149281e-05
5.536341e-05
9.127065e-05
0.000142293
0.000211256
0.0003004968
0.0004116956
0.0005444001
0.000743568
0.001003812
0.001306305
0.00165071
0.002035319
0.002457837
0.002915434
0.003404723
0.003921689
0.004461636
0.005019138
0.005588031
0.00616144
0.006731845
0.007291196
0.007831081
0.008342926
0.008818266
0.009249008
0.009627749
0.009948068
0.01020479
0.01039423
0.01051431
0.01056466
0.01054658
0.01046292
0.01031785
0.01011661
0.009865203
0.009570037
0.009237662
0.00887447
0.008486504
0.008079291
0.007657747
0.007226155
0.006788145
0.006346738
0.005904412
0.005463164
0.005024617
0.004590104
0.00416082
0.003737907
0.003322623
0.002916467
0.002521358
0.002139698
0.001774797
0.001430026
0.001110656
0.0008165941
0.0005734138
0.0003255195
0.0002722095
-7.007733e-05
8.848001e-05
)
;
    }
    wall
    {
        type            calculated;
        value           nonuniform List<scalar> 2(2.92788e-10 2.927805e-10);
    }
    frontAndBack
    {
        type            empty;
    }
    middle
    {
        type            symmetryPlane;
        value           nonuniform List<scalar> 2(8.848009e-05 8.847993e-05);
    }
}


// ************************************************************************* //
