/*--------------------------------*- C++ -*----------------------------------*\
| =========                 |                                                 |
| \\      /  F ield         | foam-extend: Open Source CFD                    |
|  \\    /   O peration     | Version:     4.0                                |
|   \\  /    A nd           | Web:         http://www.foam-extend.org         |
|    \\/     M anipulation  |                                                 |
\*---------------------------------------------------------------------------*/
FoamFile
{
    version     2.0;
    format      ascii;
    class       volSymmTensorField;
    location    "100";
    object      NLT;
}
// * * * * * * * * * * * * * * * * * * * * * * * * * * * * * * * * * * * * * //

dimensions      [0 0 -1 0 0 0 0];

internalField   nonuniform List<symmTensor> 
150
(
(4.307617e-05 0 0 1.162903e-09 0 0)
(4.307446e-05 0 0 1.162857e-09 0 0)
(0.002245832 0 0 2.790794e-07 0 0)
(0.002245831 0 0 2.790794e-07 0 0)
(0.01494349 0 0 4.434494e-06 0 0)
(0.01494363 0 0 4.434536e-06 0 0)
(0.05477313 0 0 2.968395e-05 0 0)
(0.05477372 0 0 2.968428e-05 0 0)
(0.1480704 0 0 0.0001267559 0 0)
(0.1480712 0 0 0.0001267567 0 0)
(0.331831 0 0 0.0004096315 0 0)
(0.3318309 0 0 0.0004096313 0 0)
(0.6537809 -2.756268e-20 0 0.001093013 0 0)
(0.6537777 2.756255e-20 0 0.001093007 0 0)
(1.170999 0 0 0.002532052 0 0)
(1.17099 0 0 0.002532032 0 0)
(1.946571 0 0 0.005255064 0 0)
(1.946554 2.398843e-19 0 0.005255019 0 0)
(3.044038 0 0 0.009977224 0 0)
(3.044013 0 0 0.009977143 0 0)
(4.520065 0 0 0.01758403 0 0)
(4.520033 0 0 0.01758391 0 0)
(6.416607 2.286135e-18 0 0.02907989 0 0)
(6.416573 -2.286123e-18 0 0.02907974 0 0)
(8.754593 0 0 0.0455089 0 0)
(8.754567 0 0 0.04550878 0 0)
(11.5312 -4.82919e-18 0 0.06786786 0 0)
(11.53119 4.829185e-18 0 0.0678678 0 0)
(14.72169 0 0 0.09703666 0 0)
(14.72169 0 0 0.09703666 0 0)
(18.28438 8.613321e-18 0 0.1337394 0 0)
(18.2844 0 0 0.1337396 0 0)
(22.1163 0 0 0.1781305 0 0)
(22.11636 0 0 0.178131 0 0)
(27.87346 -2.86246e-17 0 0.2455258 0 0)
(27.87356 0 0 0.2455267 0 0)
(34.987 0 0 0.3351538 0 0)
(34.98714 0 0 0.3351551 0 0)
(42.5731 9.321114e-17 0 0.4416665 0 0)
(42.57327 -4.660576e-17 0 0.4416683 0 0)
(50.5021 0 0 0.5657418 0 0)
(50.5023 0 0 0.5657441 0 0)
(58.61607 -1.351683e-16 0 0.7076205 0 0)
(58.61634 0 0 0.7076238 0 0)
(66.75944 -1.576182e-16 0 0.8673238 0 0)
(66.75969 0 0 0.8673272 0 0)
(74.78264 0 0 1.044624 0 0)
(74.7829 0 0 1.044627 0 0)
(82.54421 2.037955e-16 0 1.238992 0 0)
(82.54447 0 0 1.238996 0 0)
(89.9118 2.268324e-16 0 1.449534 0 0)
(89.91207 0 0 1.449539 0 0)
(96.7637 4.987169e-16 0 1.674931 0 0)
(96.76398 0 0 1.674936 0 0)
(102.9901 0 0 1.913389 0 0)
(102.9904 0 0 1.913394 0 0)
(108.4948 0 0 2.162608 0 0)
(108.495 0 0 2.162614 0 0)
(113.196 0 0 2.419773 0 0)
(113.1963 0 0 2.419779 0 0)
(117.0285 -6.541058e-16 0 2.681567 0 0)
(117.0287 6.541072e-16 0 2.681573 0 0)
(119.9439 -6.8325e-16 0 2.944217 0 0)
(119.9441 0 0 2.944222 0 0)
(121.9119 2.121856e-15 0 3.20357 0 0)
(121.9121 0 0 3.203575 0 0)
(122.9209 0 0 3.455201 0 0)
(122.921 0 0 3.455205 0 0)
(122.9783 -1.476567e-15 0 3.694551 0 0)
(122.9784 0 0 3.694555 0 0)
(122.11 0 0 3.917091 0 0)
(122.11 0 0 3.917093 0 0)
(120.36 -2.97962e-15 0 4.118493 0 0)
(120.36 1.48981e-15 0 4.118494 0 0)
(117.7892 0 0 4.294822 0 0)
(117.7893 0 0 4.294823 0 0)
(114.4733 0 0 4.442705 0 0)
(114.4733 0 0 4.442705 0 0)
(110.5005 0 0 4.559485 0 0)
(110.5004 0 0 4.559485 0 0)
(105.9681 0 0 4.643338 0 0)
(105.9681 0 0 4.643337 0 0)
(100.98 0 0 4.693345 0 0)
(100.9799 0 0 4.693343 0 0)
(95.64186 0 0 4.709501 0 0)
(95.6418 0 0 4.709498 0 0)
(90.05849 4.789915e-15 0 4.692686 0 0)
(90.05843 0 0 4.692683 0 0)
(84.32976 2.255132e-15 0 4.644565 0 0)
(84.32974 0 0 4.644564 0 0)
(78.54788 0 0 4.567455 0 0)
(78.54782 0 0 4.567452 0 0)
(72.79489 0 0 4.464162 0 0)
(72.79486 0 0 4.46416 0 0)
(67.14125 0 0 4.337808 0 0)
(67.14124 0 0 4.337807 0 0)
(61.64498 -3.334613e-15 0 4.191664 0 0)
(61.64497 0 0 4.191664 0 0)
(56.35155 -3.04934e-15 0 4.028991 0 0)
(56.35154 3.04934e-15 0 4.028991 0 0)
(51.29461 0 0 3.852921 0 0)
(51.29461 0 0 3.852921 0 0)
(46.49703 0 0 3.666359 0 0)
(46.49703 0 0 3.666359 0 0)
(41.97231 0 0 3.47192 0 0)
(41.97232 0 0 3.471922 0 0)
(37.72629 0 0 3.271912 0 0)
(37.72629 0 0 3.271912 0 0)
(33.7586 0 0 3.068307 0 0)
(33.75861 0 0 3.068309 0 0)
(30.06434 3.213143e-15 0 2.862776 0 0)
(30.06434 -3.213143e-15 0 2.862776 0 0)
(26.63545 0 0 2.656698 0 0)
(26.63546 0 0 2.6567 0 0)
(23.46194 0 0 2.451214 0 0)
(23.46195 0 0 2.451216 0 0)
(20.53298 2.171945e-15 0 2.247266 0 0)
(20.53298 -2.171945e-15 0 2.247266 0 0)
(17.83761 0 0 2.045642 0 0)
(17.83761 0 0 2.045642 0 0)
(15.36563 0 0 1.84706 0 0)
(15.36563 0 0 1.84706 0 0)
(13.10775 0 0 1.652201 0 0)
(13.10775 0 0 1.6522 0 0)
(11.05599 4.62959e-15 0 1.461793 0 0)
(11.056 0 0 1.461794 0 0)
(9.203584 0 0 1.276668 0 0)
(9.203585 1.923335e-15 0 1.276668 0 0)
(7.544742 0 0 1.097825 0 0)
(7.544743 0 0 1.097825 0 0)
(6.073985 0 0 0.9264526 0 0)
(6.073987 0 0 0.9264529 0 0)
(4.786359 0 0 0.7640821 0 0)
(4.786363 1.982436e-15 0 0.7640827 0 0)
(3.674269 0 0 0.6121954 0 0)
(3.674273 0 0 0.6121961 0 0)
(2.73185 0 0 0.472976 0 0)
(2.731854 0 0 0.4729767 0 0)
(1.934278 0 0 0.3461231 0 0)
(1.934279 0 0 0.3461232 0 0)
(1.315336 0 0 0.2420521 0 0)
(1.315331 0 0 0.2420512 0 0)
(0.7271354 0 0 0.136937 0 0)
(0.7271285 0 0 0.1369357 0 0)
(0.5954699 0 0 0.1141855 0 0)
(0.595469 0 0 0.1141853 0 0)
(-0.1510832 -0 -0 -0.02934079 -0 -0)
(-0.1510811 -0 -0 -0.02934039 -0 -0)
(0.1892593 1.288635e-16 0 0.037003 0 0)
(0.1892589 0 0 0.03700293 0 0)
)
;

boundaryField
{
    leftandright
    {
        type            cyclic;
        value           nonuniform List<symmTensor> 
150
(
(4.307531e-05 0 0 1.16288e-09 0 0)
(0.002245831 0 0 2.790794e-07 0 0)
(0.01494356 0 0 4.434515e-06 0 0)
(0.05477343 0 0 2.968412e-05 0 0)
(0.1480708 0 0 0.0001267563 0 0)
(0.3318309 0 0 0.0004096314 0 0)
(0.6537793 1.515643e-35 0 0.00109301 0 0)
(1.170995 0 0 0.002532042 0 0)
(1.946563 1.199426e-19 0 0.005255042 0 0)
(3.044026 0 0 0.009977183 0 0)
(4.520049 0 0 0.01758397 0 0)
(6.41659 1.792182e-34 0 0.02907982 0 0)
(8.75458 0 0 0.04550884 0 0)
(11.53119 -1.254803e-33 0 0.06786783 0 0)
(14.72169 0 0 0.09703666 0 0)
(18.28439 4.306663e-18 0 0.1337395 0 0)
(22.11633 0 0 0.1781307 0 0)
(27.87351 -1.431232e-17 0 0.2455262 0 0)
(34.98707 0 0 0.3351544 0 0)
(42.57319 2.330283e-17 0 0.4416674 0 0)
(50.5022 0 0 0.5657429 0 0)
(58.6162 -6.758431e-17 0 0.7076221 0 0)
(66.75956 -7.880923e-17 0 0.8673255 0 0)
(74.78277 0 0 1.044626 0 0)
(82.54434 1.018979e-16 0 1.238994 0 0)
(89.91194 1.134164e-16 0 1.449536 0 0)
(96.76384 2.493588e-16 0 1.674934 0 0)
(102.9903 0 0 1.913391 0 0)
(108.4949 0 0 2.162611 0 0)
(113.1962 0 0 2.419776 0 0)
(117.0286 0 0 2.68157 0 0)
(119.944 -3.416253e-16 0 2.94422 0 0)
(121.912 1.060929e-15 0 3.203573 0 0)
(122.921 0 0 3.455203 0 0)
(122.9783 -7.382838e-16 0 3.694553 0 0)
(122.11 0 0 3.917092 0 0)
(120.36 -7.449051e-16 0 4.118494 0 0)
(117.7892 0 0 4.294823 0 0)
(114.4733 0 0 4.442705 0 0)
(110.5004 0 0 4.559485 0 0)
(105.9681 0 0 4.643338 0 0)
(100.9799 0 0 4.693344 0 0)
(95.64183 0 0 4.7095 0 0)
(90.05846 2.394957e-15 0 4.692685 0 0)
(84.32975 1.127566e-15 0 4.644564 0 0)
(78.54785 0 0 4.567454 0 0)
(72.79487 0 0 4.464161 0 0)
(67.14125 0 0 4.337807 0 0)
(61.64498 -1.667307e-15 0 4.191664 0 0)
(56.35155 -3.376958e-30 0 4.028991 0 0)
(51.29461 0 0 3.852921 0 0)
(46.49703 0 0 3.666359 0 0)
(41.97231 0 0 3.471921 0 0)
(37.72629 0 0 3.271912 0 0)
(33.7586 0 0 3.068308 0 0)
(30.06434 2.822915e-31 0 2.862776 0 0)
(26.63545 0 0 2.656699 0 0)
(23.46195 0 0 2.451215 0 0)
(20.53298 4.43195e-31 0 2.247266 0 0)
(17.83761 0 0 2.045642 0 0)
(15.36563 0 0 1.84706 0 0)
(13.10775 0 0 1.652201 0 0)
(11.056 2.314795e-15 0 1.461793 0 0)
(9.203584 9.616676e-16 0 1.276668 0 0)
(7.544743 0 0 1.097825 0 0)
(6.073986 0 0 0.9264528 0 0)
(4.786361 9.912175e-16 0 0.7640824 0 0)
(3.674271 0 0 0.6121958 0 0)
(2.731852 0 0 0.4729764 0 0)
(1.934278 0 0 0.3461232 0 0)
(1.315334 0 0 0.2420516 0 0)
(0.727132 0 0 0.1369363 0 0)
(0.5954694 0 0 0.1141854 0 0)
(-0.1510822 -0 -0 -0.02934059 -0 -0)
(0.1892591 6.44317e-17 0 0.03700297 0 0)
(4.307531e-05 0 0 1.16288e-09 0 0)
(0.002245831 0 0 2.790794e-07 0 0)
(0.01494356 0 0 4.434515e-06 0 0)
(0.05477343 0 0 2.968412e-05 0 0)
(0.1480708 0 0 0.0001267563 0 0)
(0.3318309 0 0 0.0004096314 0 0)
(0.6537793 1.684048e-35 0 0.00109301 0 0)
(1.170995 0 0 0.002532042 0 0)
(1.946563 1.199426e-19 0 0.005255042 0 0)
(3.044026 0 0 0.009977183 0 0)
(4.520049 0 0 0.01758397 0 0)
(6.41659 1.792182e-34 0 0.02907982 0 0)
(8.75458 0 0 0.04550884 0 0)
(11.53119 -1.254803e-33 0 0.06786783 0 0)
(14.72169 0 0 0.09703666 0 0)
(18.28439 4.306663e-18 0 0.1337395 0 0)
(22.11633 0 0 0.1781307 0 0)
(27.87351 -1.431232e-17 0 0.2455262 0 0)
(34.98707 0 0 0.3351544 0 0)
(42.57319 2.330283e-17 0 0.4416674 0 0)
(50.5022 0 0 0.5657429 0 0)
(58.6162 -6.758431e-17 0 0.7076221 0 0)
(66.75956 -7.880923e-17 0 0.8673255 0 0)
(74.78277 0 0 1.044626 0 0)
(82.54434 1.018979e-16 0 1.238994 0 0)
(89.91194 1.134164e-16 0 1.449536 0 0)
(96.76384 2.493588e-16 0 1.674934 0 0)
(102.9903 0 0 1.913391 0 0)
(108.4949 0 0 2.162611 0 0)
(113.1962 0 0 2.419776 0 0)
(117.0286 0 0 2.68157 0 0)
(119.944 -3.416253e-16 0 2.94422 0 0)
(121.912 1.060929e-15 0 3.203573 0 0)
(122.921 0 0 3.455203 0 0)
(122.9783 -7.382838e-16 0 3.694553 0 0)
(122.11 0 0 3.917092 0 0)
(120.36 -7.449051e-16 0 4.118494 0 0)
(117.7892 0 0 4.294823 0 0)
(114.4733 0 0 4.442705 0 0)
(110.5004 0 0 4.559485 0 0)
(105.9681 0 0 4.643338 0 0)
(100.9799 0 0 4.693344 0 0)
(95.64183 0 0 4.7095 0 0)
(90.05846 2.394957e-15 0 4.692685 0 0)
(84.32975 1.127566e-15 0 4.644564 0 0)
(78.54785 0 0 4.567454 0 0)
(72.79487 0 0 4.464161 0 0)
(67.14125 0 0 4.337807 0 0)
(61.64498 -1.667307e-15 0 4.191664 0 0)
(56.35155 -3.376958e-30 0 4.028991 0 0)
(51.29461 0 0 3.852921 0 0)
(46.49703 0 0 3.666359 0 0)
(41.97231 0 0 3.471921 0 0)
(37.72629 0 0 3.271912 0 0)
(33.7586 0 0 3.068308 0 0)
(30.06434 2.822915e-31 0 2.862776 0 0)
(26.63545 0 0 2.656699 0 0)
(23.46195 0 0 2.451215 0 0)
(20.53298 4.43195e-31 0 2.247266 0 0)
(17.83761 0 0 2.045642 0 0)
(15.36563 0 0 1.84706 0 0)
(13.10775 0 0 1.652201 0 0)
(11.056 2.314795e-15 0 1.461793 0 0)
(9.203584 9.616676e-16 0 1.276668 0 0)
(7.544743 0 0 1.097825 0 0)
(6.073986 0 0 0.9264528 0 0)
(4.786361 9.912175e-16 0 0.7640824 0 0)
(3.674271 0 0 0.6121958 0 0)
(2.731852 0 0 0.4729764 0 0)
(1.934278 0 0 0.3461232 0 0)
(1.315334 0 0 0.2420516 0 0)
(0.727132 0 0 0.1369363 0 0)
(0.5954694 0 0 0.1141854 0 0)
(-0.1510822 -0 -0 -0.02934059 -0 -0)
(0.1892591 6.44317e-17 0 0.03700297 0 0)
)
;
    }
    wall
    {
        type            calculated;
        value           nonuniform List<symmTensor> 2((8.584706e-08 0 0 5.580059e-08 0 0) (8.584372e-08 0 0 5.579842e-08 0 0));
    }
    frontAndBack
    {
        type            empty;
    }
    middle
    {
        type            symmetryPlane;
        value           nonuniform List<symmTensor> 2((0.1892593 0 0 0.037003 0 0) (0.1892589 0 0 0.03700293 0 0));
    }
}


// ************************************************************************* //
