/*--------------------------------*- C++ -*----------------------------------*\
| =========                 |                                                 |
| \\      /  F ield         | foam-extend: Open Source CFD                    |
|  \\    /   O peration     | Version:     4.0                                |
|   \\  /    A nd           | Web:         http://www.foam-extend.org         |
|    \\/     M anipulation  |                                                 |
\*---------------------------------------------------------------------------*/
FoamFile
{
    version     2.0;
    format      ascii;
    class       volSymmTensorField;
    location    "100";
    object      NLTPlus;
}
// * * * * * * * * * * * * * * * * * * * * * * * * * * * * * * * * * * * * * //

dimensions      [0 2 -2 0 0 0 0];

internalField   nonuniform List<symmTensor> 
150
(
(2.39312e-07 0 0 6.460572e-12 0 0)
(2.393026e-07 0 0 6.460317e-12 0 0)
(1.247684e-05 0 0 1.550441e-09 0 0)
(1.247684e-05 0 0 1.550441e-09 0 0)
(8.301938e-05 0 0 2.463608e-08 0 0)
(8.302017e-05 0 0 2.463631e-08 0 0)
(0.0003042952 0 0 1.649109e-07 0 0)
(0.0003042985 0 0 1.649127e-07 0 0)
(0.0008226131 0 0 7.041997e-07 0 0)
(0.0008226176 0 0 7.042037e-07 0 0)
(0.001843506 0 0 2.275731e-06 0 0)
(0.001843505 0 0 2.27573e-06 0 0)
(0.003632116 -1.53126e-22 0 6.072292e-06 0 0)
(0.003632098 1.531253e-22 0 6.072262e-06 0 0)
(0.006505552 0 0 1.406695e-05 0 0)
(0.006505501 0 0 1.406685e-05 0 0)
(0.01081428 0 0 2.91948e-05 0 0)
(0.01081419 1.33269e-21 0 2.919455e-05 0 0)
(0.01691132 0 0 5.542902e-05 0 0)
(0.01691118 0 0 5.542857e-05 0 0)
(0.02511147 0 0 9.768906e-05 0 0)
(0.0251113 0 0 9.768839e-05 0 0)
(0.03564781 1.270075e-20 0 0.0001615549 0 0)
(0.03564763 -1.270068e-20 0 0.0001615541 0 0)
(0.04863663 0 0 0.0002528272 0 0)
(0.04863649 0 0 0.0002528265 0 0)
(0.06406222 -2.682883e-20 0 0.0003770437 0 0)
(0.06406215 2.682881e-20 0 0.0003770433 0 0)
(0.08178716 0 0 0.0005390926 0 0)
(0.08178715 0 0 0.0005390926 0 0)
(0.1015799 4.785178e-20 0 0.0007429968 0 0)
(0.10158 0 0 0.0007429978 0 0)
(0.1228684 0 0 0.0009896139 0 0)
(0.1228687 0 0 0.0009896165 0 0)
(0.1548525 -1.590255e-19 0 0.001364032 0 0)
(0.1548531 0 0 0.001364037 0 0)
(0.1943722 0 0 0.001861965 0 0)
(0.194373 0 0 0.001861973 0 0)
(0.2365172 5.178396e-19 0 0.002453703 0 0)
(0.2365182 -2.589209e-19 0 0.002453713 0 0)
(0.2805672 0 0 0.00314301 0 0)
(0.2805684 0 0 0.003143023 0 0)
(0.3256448 -7.509349e-19 0 0.003931225 0 0)
(0.3256463 0 0 0.003931244 0 0)
(0.3708858 -8.756565e-19 0 0.004818466 0 0)
(0.3708872 0 0 0.004818484 0 0)
(0.4154591 0 0 0.005803465 0 0)
(0.4154606 0 0 0.005803486 0 0)
(0.4585789 1.132197e-18 0 0.006883289 0 0)
(0.4585804 0 0 0.006883312 0 0)
(0.49951 1.26018e-18 0 0.008052968 0 0)
(0.4995115 0 0 0.008052993 0 0)
(0.5375761 2.770649e-18 0 0.009305173 0 0)
(0.5375776 0 0 0.0093052 0 0)
(0.5721674 0 0 0.01062994 0 0)
(0.5721688 0 0 0.01062997 0 0)
(0.6027486 0 0 0.01201449 0 0)
(0.6027501 0 0 0.01201452 0 0)
(0.6288668 0 0 0.01344319 0 0)
(0.6288682 0 0 0.01344322 0 0)
(0.6501584 -3.633921e-18 0 0.0148976 0 0)
(0.6501596 3.633929e-18 0 0.01489763 0 0)
(0.6663548 -3.795834e-18 0 0.01635676 0 0)
(0.6663559 0 0 0.01635679 0 0)
(0.6772882 1.178809e-17 0 0.01779761 0 0)
(0.6772892 0 0 0.01779764 0 0)
(0.6828939 0 0 0.01919556 0 0)
(0.6828947 0 0 0.01919558 0 0)
(0.6832126 -8.20315e-18 0 0.02052528 0 0)
(0.6832131 0 0 0.0205253 0 0)
(0.6783886 0 0 0.02176161 0 0)
(0.6783891 0 0 0.02176163 0 0)
(0.6686667 -1.655344e-17 0 0.02288051 0 0)
(0.6686669 8.276725e-18 0 0.02288052 0 0)
(0.6543847 0 0 0.02386012 0 0)
(0.6543848 0 0 0.02386013 0 0)
(0.635963 0 0 0.02468169 0 0)
(0.635963 0 0 0.0246817 0 0)
(0.6138914 0 0 0.02533047 0 0)
(0.6138913 0 0 0.02533047 0 0)
(0.5887118 0 0 0.02579632 0 0)
(0.5887117 0 0 0.02579632 0 0)
(0.5609998 0 0 0.02607414 0 0)
(0.5609996 0 0 0.02607413 0 0)
(0.5313437 0 0 0.02616389 0 0)
(0.5313433 0 0 0.02616388 0 0)
(0.500325 2.661064e-17 0 0.02607048 0 0)
(0.5003246 0 0 0.02607046 0 0)
(0.4684987 1.252851e-17 0 0.02580314 0 0)
(0.4684986 0 0 0.02580313 0 0)
(0.4363771 0 0 0.02537475 0 0)
(0.4363768 0 0 0.02537473 0 0)
(0.404416 0 0 0.0248009 0 0)
(0.4044159 0 0 0.02480089 0 0)
(0.373007 0 0 0.02409893 0 0)
(0.3730069 0 0 0.02409893 0 0)
(0.3424721 -1.852563e-17 0 0.02328702 0 0)
(0.3424721 0 0 0.02328702 0 0)
(0.3130642 -1.694078e-17 0 0.02238328 0 0)
(0.3130641 1.694078e-17 0 0.02238328 0 0)
(0.28497 0 0 0.02140512 0 0)
(0.28497 0 0 0.02140511 0 0)
(0.2583168 0 0 0.02036866 0 0)
(0.2583168 0 0 0.02036866 0 0)
(0.2331795 0 0 0.01928845 0 0)
(0.2331796 0 0 0.01928845 0 0)
(0.2095905 0 0 0.01817729 0 0)
(0.2095905 0 0 0.01817729 0 0)
(0.1875478 0 0 0.01704615 0 0)
(0.1875478 0 0 0.01704616 0 0)
(0.1670241 1.78508e-17 0 0.01590431 0 0)
(0.1670241 -1.78508e-17 0 0.01590431 0 0)
(0.1479747 0 0 0.01475943 0 0)
(0.1479748 0 0 0.01475944 0 0)
(0.1303441 0 0 0.01361786 0 0)
(0.1303442 0 0 0.01361786 0 0)
(0.1140721 1.206636e-17 0 0.01248481 0 0)
(0.1140721 -1.206636e-17 0 0.01248481 0 0)
(0.09909786 0 0 0.01136468 0 0)
(0.09909785 0 0 0.01136468 0 0)
(0.0853646 0 0 0.01026144 0 0)
(0.08536459 0 0 0.01026144 0 0)
(0.07282082 0 0 0.009178892 0 0)
(0.07282081 0 0 0.009178891 0 0)
(0.06142219 2.571995e-17 0 0.008121074 0 0)
(0.0614222 0 0 0.008121075 0 0)
(0.05113102 0 0 0.007092598 0 0)
(0.05113103 1.06852e-17 0 0.007092599 0 0)
(0.04191523 0 0 0.006099029 0 0)
(0.04191524 0 0 0.006099029 0 0)
(0.03374436 0 0 0.005146959 0 0)
(0.03374437 0 0 0.005146961 0 0)
(0.02659088 0 0 0.004244901 0 0)
(0.02659091 1.101353e-17 0 0.004244904 0 0)
(0.02041261 0 0 0.003401086 0 0)
(0.02041263 0 0 0.00340109 0 0)
(0.01517694 0 0 0.002627645 0 0)
(0.01517697 0 0 0.002627648 0 0)
(0.01074599 0 0 0.001922906 0 0)
(0.01074599 0 0 0.001922907 0 0)
(0.007307422 0 0 0.001344734 0 0)
(0.007307396 0 0 0.001344729 0 0)
(0.004039641 0 0 0.0007607611 0 0)
(0.004039603 0 0 0.0007607538 0 0)
(0.003308166 0 0 0.000634364 0 0)
(0.003308161 0 0 0.0006343629 0 0)
(-0.000839351 -0 -0 -0.0001630044 -0 -0)
(-0.0008393397 -0 -0 -0.0001630022 -0 -0)
(0.001051441 7.159085e-19 0 0.0002055722 0 0)
(0.001051439 0 0 0.0002055718 0 0)
)
;

boundaryField
{
    leftandright
    {
        type            cyclic;
        value           nonuniform List<symmTensor> 
150
(
(2.393073e-07 0 0 6.460444e-12 0 0)
(1.247684e-05 0 0 1.550441e-09 0 0)
(8.301977e-05 0 0 2.463619e-08 0 0)
(0.0003042968 0 0 1.649118e-07 0 0)
(0.0008226154 0 0 7.042017e-07 0 0)
(0.001843505 0 0 2.27573e-06 0 0)
(0.003632107 8.420242e-38 0 6.072277e-06 0 0)
(0.006505527 0 0 1.40669e-05 0 0)
(0.01081424 6.66348e-22 0 2.919468e-05 0 0)
(0.01691125 0 0 5.54288e-05 0 0)
(0.02511138 0 0 9.768873e-05 0 0)
(0.03564772 9.956567e-37 0 0.0001615545 0 0)
(0.04863656 0 0 0.0002528269 0 0)
(0.06406219 -6.97113e-36 0 0.0003770435 0 0)
(0.08178716 0 0 0.0005390926 0 0)
(0.1015799 2.392591e-20 0 0.0007429973 0 0)
(0.1228685 0 0 0.0009896152 0 0)
(0.1548528 -7.951292e-20 0 0.001364035 0 0)
(0.1943726 0 0 0.001861969 0 0)
(0.2365177 1.294602e-19 0 0.002453708 0 0)
(0.2805678 0 0 0.003143016 0 0)
(0.3256456 -3.754684e-19 0 0.003931234 0 0)
(0.3708865 -4.378291e-19 0 0.004818475 0 0)
(0.4154599 0 0 0.005803476 0 0)
(0.4585797 5.660995e-19 0 0.0068833 0 0)
(0.4995108 6.30091e-19 0 0.00805298 0 0)
(0.5375769 1.385327e-18 0 0.009305186 0 0)
(0.5721681 0 0 0.01062995 0 0)
(0.6027494 0 0 0.01201451 0 0)
(0.6288675 0 0 0.0134432 0 0)
(0.650159 0 0 0.01489761 0 0)
(0.6663553 -1.897918e-18 0 0.01635678 0 0)
(0.6772887 5.894048e-18 0 0.01779763 0 0)
(0.6828943 0 0 0.01919557 0 0)
(0.6832128 -4.101577e-18 0 0.02052529 0 0)
(0.6783889 0 0 0.02176162 0 0)
(0.6686668 -4.138362e-18 0 0.02288052 0 0)
(0.6543847 0 0 0.02386013 0 0)
(0.635963 0 0 0.0246817 0 0)
(0.6138914 0 0 0.02533047 0 0)
(0.5887118 0 0 0.02579632 0 0)
(0.5609997 0 0 0.02607413 0 0)
(0.5313435 0 0 0.02616389 0 0)
(0.5003248 1.330532e-17 0 0.02607047 0 0)
(0.4684986 6.264254e-18 0 0.02580314 0 0)
(0.4363769 0 0 0.02537474 0 0)
(0.404416 0 0 0.02480089 0 0)
(0.3730069 0 0 0.02409893 0 0)
(0.3424721 -9.262815e-18 0 0.02328702 0 0)
(0.3130642 -1.876088e-32 0 0.02238328 0 0)
(0.28497 0 0 0.02140512 0 0)
(0.2583168 0 0 0.02036866 0 0)
(0.2331795 0 0 0.01928845 0 0)
(0.2095905 0 0 0.01817729 0 0)
(0.1875478 0 0 0.01704616 0 0)
(0.1670241 1.568286e-33 0 0.01590431 0 0)
(0.1479747 0 0 0.01475944 0 0)
(0.1303441 0 0 0.01361786 0 0)
(0.1140721 2.462195e-33 0 0.01248481 0 0)
(0.09909785 0 0 0.01136468 0 0)
(0.0853646 0 0 0.01026144 0 0)
(0.07282082 0 0 0.009178892 0 0)
(0.0614222 1.285997e-17 0 0.008121075 0 0)
(0.05113102 5.342598e-18 0 0.007092598 0 0)
(0.04191524 0 0 0.006099029 0 0)
(0.03374437 0 0 0.00514696 0 0)
(0.0265909 5.506764e-18 0 0.004244902 0 0)
(0.02041262 0 0 0.003401088 0 0)
(0.01517696 0 0 0.002627646 0 0)
(0.01074599 0 0 0.001922906 0 0)
(0.007307409 0 0 0.001344731 0 0)
(0.004039622 0 0 0.0007607574 0 0)
(0.003308164 0 0 0.0006343634 0 0)
(-0.0008393454 -0 -0 -0.0001630033 -0 -0)
(0.00105144 3.579539e-19 0 0.000205572 0 0)
(2.393073e-07 0 0 6.460444e-12 0 0)
(1.247684e-05 0 0 1.550441e-09 0 0)
(8.301977e-05 0 0 2.463619e-08 0 0)
(0.0003042968 0 0 1.649118e-07 0 0)
(0.0008226154 0 0 7.042017e-07 0 0)
(0.001843505 0 0 2.27573e-06 0 0)
(0.003632107 9.355824e-38 0 6.072277e-06 0 0)
(0.006505527 0 0 1.40669e-05 0 0)
(0.01081424 6.66348e-22 0 2.919468e-05 0 0)
(0.01691125 0 0 5.54288e-05 0 0)
(0.02511138 0 0 9.768873e-05 0 0)
(0.03564772 9.956567e-37 0 0.0001615545 0 0)
(0.04863656 0 0 0.0002528269 0 0)
(0.06406219 -6.97113e-36 0 0.0003770435 0 0)
(0.08178716 0 0 0.0005390926 0 0)
(0.1015799 2.392591e-20 0 0.0007429973 0 0)
(0.1228685 0 0 0.0009896152 0 0)
(0.1548528 -7.951292e-20 0 0.001364035 0 0)
(0.1943726 0 0 0.001861969 0 0)
(0.2365177 1.294602e-19 0 0.002453708 0 0)
(0.2805678 0 0 0.003143016 0 0)
(0.3256456 -3.754684e-19 0 0.003931234 0 0)
(0.3708865 -4.378291e-19 0 0.004818475 0 0)
(0.4154599 0 0 0.005803476 0 0)
(0.4585797 5.660995e-19 0 0.0068833 0 0)
(0.4995108 6.30091e-19 0 0.00805298 0 0)
(0.5375769 1.385327e-18 0 0.009305186 0 0)
(0.5721681 0 0 0.01062995 0 0)
(0.6027494 0 0 0.01201451 0 0)
(0.6288675 0 0 0.0134432 0 0)
(0.650159 0 0 0.01489761 0 0)
(0.6663553 -1.897918e-18 0 0.01635678 0 0)
(0.6772887 5.894048e-18 0 0.01779763 0 0)
(0.6828943 0 0 0.01919557 0 0)
(0.6832128 -4.101577e-18 0 0.02052529 0 0)
(0.6783889 0 0 0.02176162 0 0)
(0.6686668 -4.138362e-18 0 0.02288052 0 0)
(0.6543847 0 0 0.02386013 0 0)
(0.635963 0 0 0.0246817 0 0)
(0.6138914 0 0 0.02533047 0 0)
(0.5887118 0 0 0.02579632 0 0)
(0.5609997 0 0 0.02607413 0 0)
(0.5313435 0 0 0.02616389 0 0)
(0.5003248 1.330532e-17 0 0.02607047 0 0)
(0.4684986 6.264254e-18 0 0.02580314 0 0)
(0.4363769 0 0 0.02537474 0 0)
(0.404416 0 0 0.02480089 0 0)
(0.3730069 0 0 0.02409893 0 0)
(0.3424721 -9.262815e-18 0 0.02328702 0 0)
(0.3130642 -1.876088e-32 0 0.02238328 0 0)
(0.28497 0 0 0.02140512 0 0)
(0.2583168 0 0 0.02036866 0 0)
(0.2331795 0 0 0.01928845 0 0)
(0.2095905 0 0 0.01817729 0 0)
(0.1875478 0 0 0.01704616 0 0)
(0.1670241 1.568286e-33 0 0.01590431 0 0)
(0.1479747 0 0 0.01475944 0 0)
(0.1303441 0 0 0.01361786 0 0)
(0.1140721 2.462195e-33 0 0.01248481 0 0)
(0.09909785 0 0 0.01136468 0 0)
(0.0853646 0 0 0.01026144 0 0)
(0.07282082 0 0 0.009178892 0 0)
(0.0614222 1.285997e-17 0 0.008121075 0 0)
(0.05113102 5.342598e-18 0 0.007092598 0 0)
(0.04191524 0 0 0.006099029 0 0)
(0.03374437 0 0 0.00514696 0 0)
(0.0265909 5.506764e-18 0 0.004244902 0 0)
(0.02041262 0 0 0.003401088 0 0)
(0.01517696 0 0 0.002627646 0 0)
(0.01074599 0 0 0.001922906 0 0)
(0.007307409 0 0 0.001344731 0 0)
(0.004039622 0 0 0.0007607574 0 0)
(0.003308164 0 0 0.0006343634 0 0)
(-0.0008393454 -0 -0 -0.0001630033 -0 -0)
(0.00105144 3.579539e-19 0 0.000205572 0 0)
)
;
    }
    wall
    {
        type            calculated;
        value           nonuniform List<symmTensor> 2((4.769281e-10 0 0 3.100033e-10 0 0) (4.769096e-10 0 0 3.099912e-10 0 0));
    }
    frontAndBack
    {
        type            empty;
    }
    middle
    {
        type            symmetryPlane;
        value           nonuniform List<symmTensor> 2((0.001051441 0 0 0.0002055722 0 0) (0.001051439 0 0 0.0002055718 0 0));
    }
}


// ************************************************************************* //
