/*--------------------------------*- C++ -*----------------------------------*\
| =========                 |                                                 |
| \\      /  F ield         | foam-extend: Open Source CFD                    |
|  \\    /   O peration     | Version:     4.0                                |
|   \\  /    A nd           | Web:         http://www.foam-extend.org         |
|    \\/     M anipulation  |                                                 |
\*---------------------------------------------------------------------------*/
FoamFile
{
    version     2.0;
    format      ascii;
    class       volScalarField;
    location    "100";
    object      p;
}
// * * * * * * * * * * * * * * * * * * * * * * * * * * * * * * * * * * * * * //

dimensions      [0 2 -2 0 0 0 0];

internalField   nonuniform List<scalar> 
150
(
-8.565096e-09
-0.04999999
-3.003415e-06
-0.05000298
-1.679367e-05
-0.05001679
-5.808457e-05
-0.0500581
-0.0001514047
-0.05015142
-0.0003295472
-0.05032955
-0.0006335823
-0.05063358
-0.001112438
-0.05111244
-0.001822126
-0.05182212
-0.00282463
-0.05282463
-0.004186494
-0.05418649
-0.005977192
-0.05597719
-0.008267448
-0.05826745
-0.01112786
-0.06112786
-0.01462832
-0.06462832
-0.01883764
-0.06883765
-0.02381638
-0.07381638
-0.02960263
-0.07960263
-0.03621114
-0.08621114
-0.04364781
-0.09364782
-0.05191615
-0.1019162
-0.06101228
-0.1110123
-0.07092144
-0.1209214
-0.08161794
-0.1316179
-0.09306593
-0.1430659
-0.1052205
-0.1552205
-0.1180286
-0.1680286
-0.1314307
-0.1814307
-0.1453619
-0.1953619
-0.1597531
-0.2097532
-0.1745324
-0.2245324
-0.189626
-0.239626
-0.2049588
-0.2549588
-0.2204556
-0.2704556
-0.236041
-0.286041
-0.2516402
-0.3016402
-0.267179
-0.317179
-0.282584
-0.332584
-0.2977825
-0.3477825
-0.312703
-0.362703
-0.327275
-0.377275
-0.341429
-0.391429
-0.355097
-0.405097
-0.3682126
-0.4182126
-0.3807109
-0.4307109
-0.3925298
-0.4425298
-0.4036097
-0.4536097
-0.4138945
-0.4638945
-0.4233322
-0.4733322
-0.4318755
-0.4818755
-0.4394834
-0.4894834
-0.4461211
-0.4961211
-0.4517622
-0.5017622
-0.4563892
-0.5063892
-0.459995
-0.509995
-0.462584
-0.512584
-0.4641729
-0.5141729
-0.4647909
-0.5147909
-0.4644802
-0.5144801
-0.4632947
-0.5132947
-0.4612986
-0.5112986
-0.4585628
-0.5085628
-0.4551582
-0.5051582
-0.4511479
-0.5011479
-0.4465746
-0.4965746
-0.4414417
-0.4914417
-0.4357073
-0.4857073
-0.4291775
-0.4791775
-0.4217763
-0.4717763
-0.4131108
-0.4631108
-0.4060315
-0.4560315
-0.3932597
-0.4432597
-0.4041421
-0.4541421
-0.3317044
-0.3817044
-0.538757
-0.588757
)
;

boundaryField
{
    leftandright
    {
        type            fan;
        patchType       cyclic;
        f               1(-0.1);
        value           nonuniform List<scalar> 
150
(
0.025
0.02499701
0.02498321
0.02494191
0.02484859
0.02467045
0.02436642
0.02388756
0.02317787
0.02217537
0.02081351
0.01902281
0.01673255
0.01387214
0.01037168
0.006162355
0.001183618
-0.004602633
-0.01121114
-0.01864782
-0.02691615
-0.03601228
-0.04592144
-0.05661794
-0.06806594
-0.08022047
-0.0930286
-0.1064307
-0.1203619
-0.1347532
-0.1495324
-0.164626
-0.1799588
-0.1954556
-0.211041
-0.2266402
-0.242179
-0.257584
-0.2727825
-0.287703
-0.302275
-0.316429
-0.330097
-0.3432126
-0.3557109
-0.3675298
-0.3786097
-0.3888945
-0.3983322
-0.4068755
-0.4144834
-0.4211211
-0.4267622
-0.4313892
-0.434995
-0.437584
-0.4391729
-0.4397909
-0.4394802
-0.4382947
-0.4362986
-0.4335628
-0.4301582
-0.4261479
-0.4215746
-0.4164417
-0.4107073
-0.4041775
-0.3967763
-0.3881108
-0.3810315
-0.3682597
-0.3791421
-0.3067044
-0.513757
-0.075
-0.07500299
-0.07501679
-0.07505809
-0.07515141
-0.07532955
-0.07563358
-0.07611244
-0.07682213
-0.07782463
-0.07918649
-0.08097719
-0.08326745
-0.08612786
-0.08962832
-0.09383765
-0.09881638
-0.1046026
-0.1112111
-0.1186478
-0.1269161
-0.1360123
-0.1459214
-0.1566179
-0.1680659
-0.1802205
-0.1930286
-0.2064307
-0.2203619
-0.2347532
-0.2495324
-0.264626
-0.2799588
-0.2954556
-0.311041
-0.3266402
-0.342179
-0.357584
-0.3727825
-0.387703
-0.402275
-0.416429
-0.430097
-0.4432126
-0.4557109
-0.4675298
-0.4786097
-0.4888945
-0.4983322
-0.5068755
-0.5144834
-0.5211211
-0.5267622
-0.5313892
-0.534995
-0.537584
-0.5391729
-0.5397909
-0.5394802
-0.5382947
-0.5362986
-0.5335628
-0.5301582
-0.5261479
-0.5215746
-0.5164417
-0.5107073
-0.5041775
-0.4967763
-0.4881108
-0.4810315
-0.4682597
-0.4791421
-0.4067044
-0.613757
)
;
    }
    wall
    {
        type            zeroGradient;
    }
    frontAndBack
    {
        type            empty;
    }
    middle
    {
        type            symmetryPlane;
        value           nonuniform List<scalar> 2(-0.538757 -0.588757);
    }
}


// ************************************************************************* //
