/*--------------------------------*- C++ -*----------------------------------*\
| =========                 |                                                 |
| \\      /  F ield         | foam-extend: Open Source CFD                    |
|  \\    /   O peration     | Version:     4.0                                |
|   \\  /    A nd           | Web:         http://www.foam-extend.org         |
|    \\/     M anipulation  |                                                 |
\*---------------------------------------------------------------------------*/
FoamFile
{
    version     2.0;
    format      ascii;
    class       surfaceScalarField;
    location    "100";
    object      phi;
}
// * * * * * * * * * * * * * * * * * * * * * * * * * * * * * * * * * * * * * //

dimensions      [0 3 -1 0 0 0 0];

internalField   nonuniform List<scalar> 
223
(
1.449046e-05
4.051062e-14
-3.977995e-14
4.643055e-05
1.45701e-13
-1.165104e-13
8.322611e-05
2.134493e-13
-1.907642e-13
0.0001254531
2.479225e-13
-2.551581e-13
0.0001737458
2.775582e-13
-3.225913e-13
0.0002287992
3.173932e-13
-3.967466e-13
0.000291371
3.707958e-13
-4.739281e-13
0.0003622816
4.371701e-13
-5.490625e-13
0.0004424129
5.156207e-13
-6.178446e-13
0.0005327065
6.055984e-13
-6.769008e-13
0.0006341603
7.065415e-13
-7.241308e-13
0.000747827
8.172144e-13
-7.588866e-13
0.0008748134
9.350169e-13
-7.812631e-13
0.001016283
1.056817e-12
-7.925898e-13
0.001173462
1.178521e-12
-7.980804e-13
0.001347648
1.285089e-12
-8.144904e-13
0.001540223
1.352622e-12
-8.625508e-13
0.001752144
1.37585e-12
-9.393541e-13
0.00198386
1.368315e-12
-1.026963e-12
0.002236038
1.338304e-12
-1.117246e-12
0.002509539
1.290327e-12
-1.203696e-12
0.002805222
1.23358e-12
-1.275311e-12
0.003123956
1.177974e-12
-1.321281e-12
0.003466627
1.13186e-12
-1.332602e-12
0.003834152
1.101796e-12
-1.30509e-12
0.004227488
1.089667e-12
-1.240294e-12
0.004647647
1.092733e-12
-1.145025e-12
0.005095706
1.104415e-12
-1.030724e-12
0.005572821
1.112856e-12
-9.093256e-13
0.006080239
1.098995e-12
-7.86046e-13
0.006619308
1.049133e-12
-6.691976e-13
0.007191488
9.691098e-13
-5.780802e-13
0.00779836
8.617985e-13
-5.125489e-13
0.008441632
7.129108e-13
-4.446721e-13
0.009123151
5.25451e-13
-3.596035e-13
0.009844903
3.285399e-13
-2.586703e-13
0.01060902
1.492855e-13
-1.419964e-13
0.0114178
4.244696e-15
-1.457739e-14
0.01227369
-1.147708e-13
1.280736e-13
0.01317929
-1.958656e-13
2.556581e-13
0.01413739
-2.254592e-13
3.288556e-13
0.01515094
-2.533445e-13
3.682747e-13
0.01622307
-3.045627e-13
3.723613e-13
0.0173571
-3.691876e-13
3.252058e-13
0.01855653
-4.697428e-13
2.700415e-13
0.01982506
-6.039074e-13
2.453808e-13
0.02116657
-6.982767e-13
2.303999e-13
0.02258518
-7.198222e-13
2.355172e-13
0.02408516
-6.870449e-13
2.934703e-13
0.02567102
-6.043005e-13
3.877266e-13
0.02734748
-4.883188e-13
4.763406e-13
0.02911942
-3.70434e-13
5.114813e-13
0.03099194
-2.845267e-13
4.635766e-13
0.03297033
-2.49675e-13
3.31679e-13
0.03506001
-2.580866e-13
1.486492e-13
0.03726657
-2.748669e-13
-2.126549e-14
0.03959567
-2.499916e-13
-1.14127e-13
0.0420531
-1.461639e-13
-9.797567e-14
0.04464461
3.225151e-14
5.735691e-15
0.04737598
1.840099e-13
1.621467e-13
0.05025289
2.060193e-13
2.806963e-13
0.05328086
1.232643e-13
2.033414e-13
0.05646527
-3.875214e-14
-3.801466e-14
0.05981123
-2.084083e-13
-2.361237e-13
0.06332362
-2.188488e-13
-2.194028e-13
0.06700711
-1.269482e-14
3.36161e-14
0.07086612
2.153695e-13
2.687843e-13
0.07490497
2.003397e-13
1.791383e-13
0.0791279
1.224456e-13
-1.151422e-13
0.08353886
6.870172e-13
5.802178e-14
0.088141
3.502295e-13
-7.267872e-14
0.09293625
-2.887319e-15
-3.988608e-13
0.09792505
-4.005657e-13
-7.484082e-14
0.1031058
-1.626014e-13
-2.600865e-13
0.1084735
)
;

boundaryField
{
    leftandright
    {
        type            cyclic;
        value           nonuniform List<scalar> 
150
(
-1.449046e-05
-4.643055e-05
-8.322611e-05
-0.0001254531
-0.0001737458
-0.0002287992
-0.000291371
-0.0003622816
-0.0004424129
-0.0005327065
-0.0006341603
-0.000747827
-0.0008748134
-0.001016283
-0.001173462
-0.001347648
-0.001540223
-0.001752144
-0.00198386
-0.002236038
-0.002509539
-0.002805222
-0.003123956
-0.003466627
-0.003834152
-0.004227488
-0.004647647
-0.005095706
-0.005572821
-0.006080239
-0.006619308
-0.007191488
-0.00779836
-0.008441632
-0.009123151
-0.009844903
-0.01060902
-0.0114178
-0.01227369
-0.01317929
-0.01413739
-0.01515094
-0.01622307
-0.0173571
-0.01855653
-0.01982506
-0.02116657
-0.02258518
-0.02408516
-0.02567102
-0.02734748
-0.02911942
-0.03099194
-0.03297033
-0.03506001
-0.03726657
-0.03959567
-0.0420531
-0.04464461
-0.04737598
-0.05025289
-0.05328086
-0.05646527
-0.05981123
-0.06332362
-0.06700711
-0.07086612
-0.07490497
-0.0791279
-0.08353886
-0.088141
-0.09293625
-0.09792505
-0.1031058
-0.1084735
1.449046e-05
4.643055e-05
8.322611e-05
0.0001254531
0.0001737458
0.0002287992
0.000291371
0.0003622816
0.0004424129
0.0005327065
0.0006341603
0.000747827
0.0008748134
0.001016283
0.001173462
0.001347648
0.001540223
0.001752144
0.00198386
0.002236038
0.002509539
0.002805222
0.003123956
0.003466627
0.003834152
0.004227488
0.004647647
0.005095706
0.005572821
0.006080239
0.006619308
0.007191488
0.00779836
0.008441632
0.009123151
0.009844903
0.01060902
0.0114178
0.01227369
0.01317929
0.01413739
0.01515094
0.01622307
0.0173571
0.01855653
0.01982506
0.02116657
0.02258518
0.02408516
0.02567102
0.02734748
0.02911942
0.03099194
0.03297033
0.03506001
0.03726657
0.03959567
0.0420531
0.04464461
0.04737598
0.05025289
0.05328086
0.05646527
0.05981123
0.06332362
0.06700711
0.07086612
0.07490497
0.0791279
0.08353886
0.088141
0.09293625
0.09792505
0.1031058
0.1084735
)
;
    }
    wall
    {
        type            calculated;
        value           uniform 0;
    }
    frontAndBack
    {
        type            empty;
    }
    middle
    {
        type            symmetryPlane;
        value           uniform 0;
    }
}


// ************************************************************************* //
