/*--------------------------------*- C++ -*----------------------------------*\
| =========                 |                                                 |
| \\      /  F ield         | foam-extend: Open Source CFD                    |
|  \\    /   O peration     | Version:     4.0                                |
|   \\  /    A nd           | Web:         http://www.foam-extend.org         |
|    \\/     M anipulation  |                                                 |
\*---------------------------------------------------------------------------*/
FoamFile
{
    version     2.0;
    format      ascii;
    class       volScalarField;
    location    "100";
    object      QR;
}
// * * * * * * * * * * * * * * * * * * * * * * * * * * * * * * * * * * * * * //

dimensions      [0 0 -1 0 0 0 0];

internalField   nonuniform List<scalar> 
150
(
186.7542
186.7544
186.5009
186.5008
186.2287
186.2285
185.9228
185.9227
185.5619
185.5618
185.1168
185.1168
184.5512
184.5512
183.8217
183.8218
182.8807
182.8807
181.68
181.68
180.1761
180.1761
178.3359
178.3359
176.1412
176.1412
173.5912
173.5912
170.703
170.7029
167.5102
167.5102
163.7401
163.7401
158.8913
158.8913
153.0205
153.0205
146.5783
146.5783
139.8042
139.8042
132.804
132.804
125.6783
125.6783
118.5192
118.5192
111.4089
111.4089
104.4192
104.4192
97.61087
97.61087
91.03404
91.03404
84.72803
84.72804
78.72207
78.72207
73.036
73.036
67.68127
67.68127
62.66206
62.66206
57.97639
57.97639
53.61731
53.61731
49.57397
49.57397
45.83262
45.83262
42.37748
42.37748
39.19149
39.1915
36.25697
36.25698
33.55607
33.55607
31.07119
31.07119
28.78523
28.78523
26.68187
26.68187
24.74561
24.74561
22.96189
22.96189
21.31713
21.31713
19.7987
19.7987
18.39488
18.39488
17.09484
17.09484
15.88859
15.88859
14.76687
14.76687
13.72116
13.72116
12.74357
12.74357
11.8268
11.8268
10.96413
10.96413
10.14938
10.14938
9.37692
9.37692
8.641678
8.641678
7.939184
7.939184
7.265621
7.265621
6.61791
6.61791
5.993791
5.993791
5.391901
5.391901
4.811814
4.811814
4.253996
4.253996
3.719659
3.719659
3.210452
3.210452
2.727248
2.727248
2.26839
2.26839
1.830323
1.830323
1.409612
1.409611
1.005311
1.005311
0.619336
0.6193359
0.2168694
0.2168693
)
;

boundaryField
{
    leftandright
    {
        type            cyclic;
        value           nonuniform List<scalar> 
150
(
186.7543
186.5008
186.2286
185.9228
185.5618
185.1168
184.5512
183.8217
182.8807
181.68
180.1761
178.3359
176.1412
173.5912
170.703
167.5102
163.7401
158.8913
153.0205
146.5783
139.8042
132.804
125.6783
118.5192
111.4089
104.4192
97.61087
91.03404
84.72803
78.72207
73.036
67.68127
62.66206
57.97639
53.61731
49.57397
45.83262
42.37748
39.19149
36.25698
33.55607
31.07119
28.78523
26.68187
24.74561
22.96189
21.31713
19.7987
18.39488
17.09484
15.88859
14.76687
13.72116
12.74357
11.8268
10.96413
10.14938
9.37692
8.641678
7.939184
7.265621
6.61791
5.993791
5.391901
4.811814
4.253996
3.719659
3.210452
2.727248
2.26839
1.830323
1.409611
1.005311
0.6193359
0.2168693
186.7543
186.5008
186.2286
185.9228
185.5618
185.1168
184.5512
183.8217
182.8807
181.68
180.1761
178.3359
176.1412
173.5912
170.703
167.5102
163.7401
158.8913
153.0205
146.5783
139.8042
132.804
125.6783
118.5192
111.4089
104.4192
97.61087
91.03404
84.72803
78.72207
73.036
67.68127
62.66206
57.97639
53.61731
49.57397
45.83262
42.37748
39.19149
36.25698
33.55607
31.07119
28.78523
26.68187
24.74561
22.96189
21.31713
19.7987
18.39488
17.09484
15.88859
14.76687
13.72116
12.74357
11.8268
10.96413
10.14938
9.37692
8.641678
7.939184
7.265621
6.61791
5.993791
5.391901
4.811814
4.253996
3.719659
3.210452
2.727248
2.26839
1.830323
1.409611
1.005311
0.6193359
0.2168693
)
;
    }
    wall
    {
        type            calculated;
        value           nonuniform List<scalar> 2(186.8777 186.8781);
    }
    frontAndBack
    {
        type            empty;
    }
    middle
    {
        type            symmetryPlane;
        value           nonuniform List<scalar> 2(0.6934682 0.6934682);
    }
}


// ************************************************************************* //
