/*--------------------------------*- C++ -*----------------------------------*\
| =========                 |                                                 |
| \\      /  F ield         | foam-extend: Open Source CFD                    |
|  \\    /   O peration     | Version:     4.0                                |
|   \\  /    A nd           | Web:         http://www.foam-extend.org         |
|    \\/     M anipulation  |                                                 |
\*---------------------------------------------------------------------------*/
FoamFile
{
    version     2.0;
    format      ascii;
    class       volScalarField;
    location    "100";
    object      trC;
}
// * * * * * * * * * * * * * * * * * * * * * * * * * * * * * * * * * * * * * //

dimensions      [0 0 0 0 0 0 0];

internalField   nonuniform List<scalar> 
150
(
335.8535
335.861
335.7064
335.7201
335.4547
335.4587
335.0942
335.0952
334.6296
334.6304
334.0471
334.0479
333.3163
333.3172
332.3951
332.3961
331.2341
331.235
329.7814
329.7824
327.9894
327.9903
325.8201
325.821
323.25
323.2509
320.2681
320.2689
316.8601
316.8608
312.954
312.9547
308.2639
308.2645
302.4014
302.4019
295.2767
295.2771
287.1469
287.1473
278.2586
278.2589
268.7467
268.7469
258.7043
258.7046
248.2135
248.2138
237.3548
237.355
226.2094
226.2097
214.8593
214.8596
203.3856
203.386
191.8678
191.8679
180.3818
180.382
169.0001
169.0004
157.7908
157.791
146.8163
146.8165
136.1335
136.1337
125.7934
125.7935
115.8406
115.8406
106.3138
106.3138
97.24525
97.24525
88.66077
88.66077
80.57977
80.57975
73.01517
73.01514
65.97339
65.97337
59.45449
59.45446
53.45231
53.45229
47.95492
47.9549
42.94507
42.94504
38.40092
38.4009
34.29693
34.29691
30.60471
30.6047
27.29406
27.29406
24.33392
24.33392
21.69315
21.69316
19.3414
19.34141
17.24962
17.24962
15.39056
15.39057
13.73912
13.73913
12.27243
12.27244
10.97009
10.97009
9.814045
9.814047
8.788581
8.788583
7.880188
7.880189
7.077366
7.077367
6.370419
6.37042
5.751159
5.75116
5.212616
5.212616
4.748597
4.748598
4.35358
4.353582
4.021721
4.021723
3.747922
3.747925
3.522295
3.522297
3.350431
3.350431
3.192424
3.192419
3.154161
3.154148
3
3
3.048205
3.048203
)
;

boundaryField
{
    leftandright
    {
        type            cyclic;
        value           nonuniform List<scalar> 
150
(
335.8573
335.7133
335.4567
335.0947
334.63
334.0475
333.3167
332.3956
331.2345
329.7819
327.9899
325.8206
323.2504
320.2685
316.8604
312.9543
308.2642
302.4017
295.2769
287.1471
278.2588
268.7468
258.7044
248.2137
237.3549
226.2095
214.8595
203.3858
191.8678
180.3819
169.0003
157.7909
146.8164
136.1336
125.7934
115.8406
106.3138
97.24525
88.66077
80.57976
73.01515
65.97338
59.45447
53.4523
47.95491
42.94505
38.40091
34.29692
30.6047
27.29406
24.33392
21.69316
19.34141
17.24962
15.39057
13.73912
12.27244
10.97009
9.814046
8.788582
7.880188
7.077366
6.37042
5.75116
5.212616
4.748597
4.353581
4.021722
3.747924
3.522296
3.350431
3.192421
3.154154
3
3.048204
335.8573
335.7133
335.4567
335.0947
334.63
334.0475
333.3167
332.3956
331.2345
329.7819
327.9899
325.8206
323.2504
320.2685
316.8604
312.9543
308.2642
302.4017
295.2769
287.1471
278.2588
268.7468
258.7044
248.2137
237.3549
226.2095
214.8595
203.3858
191.8678
180.3819
169.0003
157.7909
146.8164
136.1336
125.7934
115.8406
106.3138
97.24525
88.66077
80.57976
73.01515
65.97338
59.45447
53.4523
47.95491
42.94505
38.40091
34.29692
30.6047
27.29406
24.33392
21.69316
19.34141
17.24962
15.39057
13.73912
12.27244
10.97009
9.814046
8.788582
7.880188
7.077366
6.37042
5.75116
5.212616
4.748597
4.353581
4.021722
3.747924
3.522296
3.350431
3.192421
3.154154
3
3.048204
)
;
    }
    wall
    {
        type            calculated;
        value           nonuniform List<scalar> 2(335.8535 335.861);
    }
    frontAndBack
    {
        type            empty;
    }
    middle
    {
        type            symmetryPlane;
        value           nonuniform List<scalar> 2(3.048205 3.048203);
    }
}


// ************************************************************************* //
