/*--------------------------------*- C++ -*----------------------------------*\
| =========                 |                                                 |
| \\      /  F ield         | foam-extend: Open Source CFD                    |
|  \\    /   O peration     | Version:     4.0                                |
|   \\  /    A nd           | Web:         http://www.foam-extend.org         |
|    \\/     M anipulation  |                                                 |
\*---------------------------------------------------------------------------*/
FoamFile
{
    version     2.0;
    format      ascii;
    class       volScalarField;
    location    "100";
    object      v2;
}
// * * * * * * * * * * * * * * * * * * * * * * * * * * * * * * * * * * * * * //

dimensions      [0 2 -2 0 0 0 0];

internalField   nonuniform List<scalar> 
150
(
4.938143e-08
4.938144e-08
2.49732e-06
2.497321e-06
1.612493e-05
1.612493e-05
5.739924e-05
5.739925e-05
0.0001508938
0.0001508938
0.0003295014
0.0003295014
0.0006343768
0.0006343769
0.001114564
0.001114564
0.001826273
0.001826273
0.002831799
0.0028318
0.004198125
0.004198126
0.005995309
0.00599531
0.008294819
0.008294821
0.01116803
0.01116803
0.01468505
0.01468505
0.01891407
0.01891407
0.02392131
0.02392131
0.02974845
0.02974845
0.03640454
0.03640455
0.04389695
0.04389696
0.0522322
0.05223221
0.06140596
0.06140597
0.07140295
0.07140296
0.08219715
0.08219716
0.09375236
0.09375238
0.1060231
0.1060231
0.1189557
0.1189557
0.1324895
0.1324895
0.1465583
0.1465583
0.1610915
0.1610916
0.1760155
0.1760155
0.1912541
0.1912542
0.2067304
0.2067304
0.2223664
0.2223664
0.2380844
0.2380844
0.2538069
0.253807
0.2694575
0.2694575
0.2849604
0.2849604
0.3002412
0.3002412
0.3152268
0.3152268
0.3298457
0.3298457
0.3440279
0.3440279
0.3577053
0.3577054
0.370812
0.370812
0.383284
0.383284
0.3950605
0.3950605
0.4060834
0.4060834
0.4162983
0.4162983
0.425655
0.425655
0.4341082
0.4341082
0.4416183
0.4416183
0.4481525
0.4481525
0.4536857
0.4536857
0.4582016
0.4582016
0.4616942
0.4616942
0.464169
0.464169
0.4656433
0.4656433
0.4661471
0.466147
0.4657228
0.4657228
0.4644251
0.4644251
0.4623185
0.4623185
0.459474
0.459474
0.4559634
0.4559634
0.4518499
0.4518499
0.4471765
0.4471764
0.4419492
0.4419492
0.4361168
0.4361168
0.4295452
0.4295452
0.4219848
0.4219848
0.4135725
0.4135725
0.4050707
0.4050707
0.3971634
0.3971633
0.3904609
0.3904609
0.3855093
0.3855093
0.3827936
0.3827936
)
;

boundaryField
{
    leftandright
    {
        type            cyclic;
        value           nonuniform List<scalar> 
150
(
4.938144e-08
2.497321e-06
1.612493e-05
5.739924e-05
0.0001508938
0.0003295014
0.0006343768
0.001114564
0.001826273
0.002831799
0.004198125
0.005995309
0.00829482
0.01116803
0.01468505
0.01891407
0.02392131
0.02974845
0.03640454
0.04389695
0.0522322
0.06140596
0.07140295
0.08219715
0.09375237
0.1060231
0.1189557
0.1324895
0.1465583
0.1610915
0.1760155
0.1912542
0.2067304
0.2223664
0.2380844
0.253807
0.2694575
0.2849604
0.3002412
0.3152268
0.3298457
0.3440279
0.3577054
0.370812
0.383284
0.3950605
0.4060834
0.4162983
0.425655
0.4341082
0.4416183
0.4481525
0.4536857
0.4582016
0.4616942
0.464169
0.4656433
0.4661471
0.4657228
0.4644251
0.4623185
0.459474
0.4559634
0.4518499
0.4471765
0.4419492
0.4361168
0.4295452
0.4219848
0.4135725
0.4050707
0.3971634
0.3904609
0.3855093
0.3827936
4.938144e-08
2.497321e-06
1.612493e-05
5.739924e-05
0.0001508938
0.0003295014
0.0006343768
0.001114564
0.001826273
0.002831799
0.004198125
0.005995309
0.00829482
0.01116803
0.01468505
0.01891407
0.02392131
0.02974845
0.03640454
0.04389695
0.0522322
0.06140596
0.07140295
0.08219715
0.09375237
0.1060231
0.1189557
0.1324895
0.1465583
0.1610915
0.1760155
0.1912542
0.2067304
0.2223664
0.2380844
0.253807
0.2694575
0.2849604
0.3002412
0.3152268
0.3298457
0.3440279
0.3577054
0.370812
0.383284
0.3950605
0.4060834
0.4162983
0.425655
0.4341082
0.4416183
0.4481525
0.4536857
0.4582016
0.4616942
0.464169
0.4656433
0.4661471
0.4657228
0.4644251
0.4623185
0.459474
0.4559634
0.4518499
0.4471765
0.4419492
0.4361168
0.4295452
0.4219848
0.4135725
0.4050707
0.3971634
0.3904609
0.3855093
0.3827936
)
;
    }
    wall
    {
        type            fixedValue;
        value           uniform 1e-10;
    }
    frontAndBack
    {
        type            empty;
    }
    middle
    {
        type            symmetryPlane;
        value           nonuniform List<scalar> 2(0.3827936 0.3827936);
    }
}


// ************************************************************************* //
