/*--------------------------------*- C++ -*----------------------------------*\
| =========                 |                                                 |
| \\      /  F ield         | foam-extend: Open Source CFD                    |
|  \\    /   O peration     | Version:     4.0                                |
|   \\  /    A nd           | Web:         http://www.foam-extend.org         |
|    \\/     M anipulation  |                                                 |
\*---------------------------------------------------------------------------*/
FoamFile
{
    version     2.0;
    format      ascii;
    class       regIOobject;
    location    "100/uniform";
    object      profilingInfo;
}
// * * * * * * * * * * * * * * * * * * * * * * * * * * * * * * * * * * * * * //

profilingInfo
(

    {
        id              24;
        parentId        22;
        description     "Foam::Time::writeObject - outputTime";
        calls           1;
        totalTime       0.010496;
        childTime       0;
        onStack         1;
    }

    {
        id              22;
        parentId        1;
        description     "Foam::Time::writeObject";
        calls           100;
        totalTime       0.010692;
        childTime       0.010496;
        onStack         1;
    }

    {
        id              1;
        description     "application::main";
        calls           1;
        totalTime       0.639238;
        childTime       0.126247;
        onStack         1;
    }

    {
        id              3;
        parentId        2;
        description     "functionObjectList::read";
        calls           1;
        totalTime       3e-06;
        childTime       0;
        onStack         0;
    }

    {
        id              23;
        parentId        1;
        description     "functionObjects_.execute()";
        calls           99;
        totalTime       0.000103;
        childTime       0;
        onStack         0;
    }

    {
        id              2;
        parentId        1;
        description     "functionObjects_.start()";
        calls           1;
        totalTime       1.2e-05;
        childTime       3e-06;
        onStack         0;
    }

    {
        id              17;
        parentId        1;
        description     "fvMatrix::solve_C";
        calls           200;
        totalTime       0.030346;
        childTime       0.01091;
        onStack         0;
    }

    {
        id              4;
        parentId        1;
        description     "fvMatrix::solve_U";
        calls           200;
        totalTime       0.020656;
        childTime       0.006161;
        onStack         0;
    }

    {
        id              9;
        parentId        1;
        description     "fvMatrix::solve_epsilon";
        calls           200;
        totalTime       0.01309;
        childTime       0.003439;
        onStack         0;
    }

    {
        id              13;
        parentId        1;
        description     "fvMatrix::solve_f";
        calls           200;
        totalTime       0.012124;
        childTime       0.004453;
        onStack         0;
    }

    {
        id              11;
        parentId        1;
        description     "fvMatrix::solve_k";
        calls           200;
        totalTime       0.011028;
        childTime       0.003156;
        onStack         0;
    }

    {
        id              7;
        parentId        1;
        description     "fvMatrix::solve_p";
        calls           200;
        totalTime       0.017777;
        childTime       0.009916;
        onStack         0;
    }

    {
        id              15;
        parentId        1;
        description     "fvMatrix::solve_v2";
        calls           200;
        totalTime       0.010419;
        childTime       0.00304;
        onStack         0;
    }

    {
        id              18;
        parentId        17;
        description     "lduMatrix::solver_Cxx";
        calls           200;
        totalTime       0.003274;
        childTime       0;
        onStack         0;
    }

    {
        id              19;
        parentId        17;
        description     "lduMatrix::solver_Cxy";
        calls           200;
        totalTime       0.002652;
        childTime       0;
        onStack         0;
    }

    {
        id              20;
        parentId        17;
        description     "lduMatrix::solver_Cyy";
        calls           200;
        totalTime       0.002519;
        childTime       0;
        onStack         0;
    }

    {
        id              21;
        parentId        17;
        description     "lduMatrix::solver_Czz";
        calls           200;
        totalTime       0.002465;
        childTime       0;
        onStack         0;
    }

    {
        id              5;
        parentId        4;
        description     "lduMatrix::solver_Ux";
        calls           200;
        totalTime       0.003499;
        childTime       0;
        onStack         0;
    }

    {
        id              6;
        parentId        4;
        description     "lduMatrix::solver_Uy";
        calls           200;
        totalTime       0.002662;
        childTime       0;
        onStack         0;
    }

    {
        id              10;
        parentId        9;
        description     "lduMatrix::solver_epsilon";
        calls           200;
        totalTime       0.003439;
        childTime       0;
        onStack         0;
    }

    {
        id              14;
        parentId        13;
        description     "lduMatrix::solver_f";
        calls           200;
        totalTime       0.004453;
        childTime       0;
        onStack         0;
    }

    {
        id              12;
        parentId        11;
        description     "lduMatrix::solver_k";
        calls           200;
        totalTime       0.003156;
        childTime       0;
        onStack         0;
    }

    {
        id              8;
        parentId        7;
        description     "lduMatrix::solver_p";
        calls           200;
        totalTime       0.009916;
        childTime       0;
        onStack         0;
    }

    {
        id              16;
        parentId        15;
        description     "lduMatrix::solver_v2";
        calls           200;
        totalTime       0.00304;
        childTime       0;
        onStack         0;
    }
);


// ************************************************************************* //
