/*--------------------------------*- C++ -*----------------------------------*\
| =========                 |                                                 |
| \\      /  F ield         | foam-extend: Open Source CFD                    |
|  \\    /   O peration     | Version:     4.0                                |
|   \\  /    A nd           | Web:         http://www.foam-extend.org         |
|    \\/     M anipulation  |                                                 |
\*---------------------------------------------------------------------------*/
FoamFile
{
    version     2.0;
    format      ascii;
    class       volSymmTensorField;
    location    "100";
    object      C;
}
// * * * * * * * * * * * * * * * * * * * * * * * * * * * * * * * * * * * * * //

dimensions      [0 0 0 0 0 0 0];

internalField   nonuniform List<symmTensor> 
150
(
(629.4417 9.751561 0 0.3017495 0 0.3015888)
(629.4398 9.751487 0 0.3017486 0 0.3015903)
(629.3356 9.751566 0 0.3018243 0 0.3016494)
(629.3337 9.751489 0 0.3018233 0 0.3016508)
(629.1598 9.752313 0 0.301981 0 0.3017743)
(629.158 9.752238 0 0.30198 0 0.3017756)
(628.9339 9.754291 0 0.3022275 0 0.3019649)
(628.9323 9.754222 0 0.3022266 0 0.301966)
(628.6654 9.757859 0 0.3025762 0 0.3022231)
(628.6641 9.757799 0 0.3025754 0 0.3022241)
(628.3512 9.763328 0 0.3030473 0 0.3025528)
(628.3502 9.763279 0 0.3030467 0 0.3025535)
(627.9801 9.771048 0 0.3036728 0 0.3029605)
(627.9793 9.771011 0 0.3036723 0 0.302961)
(627.5352 9.781487 0 0.3044992 0 0.3034558)
(627.5346 9.78146 0 0.3044989 0 0.3034562)
(626.9965 9.795302 0 0.3055898 0 0.3040505)
(626.9962 9.795284 0 0.3055896 0 0.3040508)
(626.3449 9.813398 0 0.3070261 0 0.3047566)
(626.3447 9.813387 0 0.307026 0 0.3047567)
(625.5657 9.836979 0 0.308907 0 0.3055841)
(625.5656 9.836973 0 0.3089069 0 0.3055842)
(624.6523 9.867576 0 0.3113474 0 0.3065387)
(624.6524 9.867576 0 0.3113474 0 0.3065387)
(623.6107 9.907088 0 0.3144759 0 0.307619)
(623.6108 9.907091 0 0.314476 0 0.3076189)
(622.4612 9.957841 0 0.318435 0 0.3088164)
(622.4614 9.957847 0 0.3184351 0 0.3088162)
(621.2395 10.02273 0 0.3233877 0 0.3101169)
(621.2398 10.02274 0 0.3233879 0 0.3101167)
(619.9895 10.1055 0 0.3295412 0 0.3115105)
(619.9898 10.10551 0 0.3295415 0 0.3115103)
(618.7325 10.21095 0 0.337205 0 0.3130089)
(618.7329 10.21097 0 0.3372055 0 0.3130087)
(617.3536 10.34402 0 0.3469057 0 0.3146698)
(617.3539 10.34405 0 0.3469062 0 0.3146696)
(615.6268 10.50948 0 0.3595723 0 0.3165785)
(615.6271 10.5095 0 0.359573 0 0.3165783)
(613.4941 10.71301 0 0.3759457 0 0.3187643)
(613.4944 10.71303 0 0.3759464 0 0.3187641)
(611.1484 10.96068 0 0.3963213 0 0.3211572)
(611.1487 10.96071 0 0.3963222 0 0.3211571)
(608.7773 11.25722 0 0.4211351 0 0.3236488)
(608.7775 11.25725 0 0.4211361 0 0.3236487)
(606.4464 11.60581 0 0.4509927 0 0.3261551)
(606.4466 11.60584 0 0.4509936 0 0.326155)
(604.1808 12.00978 0 0.4866746 0 0.3286219)
(604.181 12.0098 0 0.4866756 0 0.3286219)
(601.9932 12.47291 0 0.5291381 0 0.3310168)
(601.9934 12.47293 0 0.529139 0 0.3310167)
(599.8903 12.99924 0 0.5795182 0 0.333322)
(599.8905 12.99926 0 0.5795191 0 0.3333219)
(597.872 13.59272 0 0.6391325 0 0.3355316)
(597.8721 13.59273 0 0.6391334 0 0.3355316)
(595.929 14.25689 0 0.7094854 0 0.337651)
(595.9292 14.25691 0 0.7094862 0 0.337651)
(594.0426 14.99464 0 0.7922687 0 0.3396967)
(594.0428 14.99465 0 0.7922695 0 0.3396967)
(592.1841 15.8079 0 0.8893573 0 0.3416957)
(592.1843 15.80791 0 0.8893579 0 0.3416957)
(590.3165 16.69748 0 1.002797 0 0.3436845)
(590.3167 16.69749 0 1.002797 0 0.3436845)
(588.3966 17.66292 0 1.134782 0 0.345707)
(588.3967 17.66292 0 1.134783 0 0.345707)
(586.3773 18.70235 0 1.287633 0 0.3478117)
(586.3775 18.70235 0 1.287633 0 0.3478117)
(584.2106 19.81248 0 1.463749 0 0.350049)
(584.2108 19.81249 0 1.463749 0 0.350049)
(581.8497 20.98862 0 1.665572 0 0.3524682)
(581.8499 20.98862 0 1.665572 0 0.3524682)
(579.2511 22.22473 0 1.895531 0 0.3551158)
(579.2513 22.22473 0 1.895531 0 0.3551158)
(576.3757 23.51353 0 2.155988 0 0.3580334)
(576.3759 23.51354 0 2.155988 0 0.3580334)
(573.1896 24.84671 0 2.449177 0 0.3612574)
(573.1897 24.84673 0 2.449178 0 0.3612574)
(569.6641 26.21499 0 2.777142 0 0.3648182)
(569.6641 26.215 0 2.777143 0 0.3648183)
(565.775 27.60836 0 3.141675 0 0.3687417)
(565.7752 27.60837 0 3.141676 0 0.3687417)
(561.5027 29.0162 0 3.544251 0 0.3730489)
(561.5029 29.01621 0 3.544252 0 0.3730489)
(556.8302 30.42752 0 3.985976 0 0.3777579)
(556.8304 30.42753 0 3.985977 0 0.377758)
(551.7428 31.83104 0 4.467529 0 0.3828849)
(551.743 31.83106 0 4.46753 0 0.3828849)
(546.2266 33.21533 0 4.989113 0 0.3884453)
(546.2269 33.21535 0 4.989114 0 0.3884453)
(540.2678 34.56895 0 5.550416 0 0.3944551)
(540.2681 34.56897 0 5.550418 0 0.3944551)
(533.851 35.88051 0 6.150575 0 0.4009324)
(533.8514 35.88052 0 6.150577 0 0.4009324)
(526.9587 37.13868 0 6.788146 0 0.4078985)
(526.959 37.1387 0 6.788149 0 0.4078986)
(519.5697 38.33228 0 7.461079 0 0.4153792)
(519.5701 38.3323 0 7.461081 0 0.4153794)
(511.6581 39.45014 0 8.16669 0 0.4234064)
(511.6585 39.45016 0 8.166694 0 0.4234066)
(503.1923 40.48104 0 8.901635 0 0.4320194)
(503.1926 40.48107 0 8.901638 0 0.4320195)
(494.1327 41.41358 0 9.661858 0 0.4412664)
(494.133 41.4136 0 9.661862 0 0.4412665)
(484.431 42.23583 0 10.44252 0 0.4512068)
(484.4313 42.23585 0 10.44252 0 0.451207)
(474.0277 42.93509 0 11.23789 0 0.4619135)
(474.0279 42.93511 0 11.23789 0 0.4619137)
(462.8501 43.49737 0 12.04116 0 0.4734752)
(462.8503 43.49738 0 12.04116 0 0.4734753)
(450.8093 43.90678 0 12.84414 0 0.4860003)
(450.8094 43.90679 0 12.84415 0 0.4860003)
(437.797 44.14478 0 13.63687 0 0.4996207)
(437.7971 44.14479 0 13.63687 0 0.4996207)
(423.6813 44.18914 0 14.40696 0 0.5144978)
(423.6814 44.18915 0 14.40697 0 0.5144977)
(408.3016 44.01271 0 15.13866 0 0.5308286)
(408.3017 44.01272 0 15.13866 0 0.5308285)
(391.4619 43.58177 0 15.81155 0 0.5488553)
(391.462 43.58177 0 15.81155 0 0.5488552)
(372.9226 42.85402 0 16.39862 0 0.5688759)
(372.9227 42.85402 0 16.39862 0 0.5688758)
(352.3902 41.77608 0 16.8637 0 0.5912598)
(352.3903 41.7761 0 16.86371 0 0.5912596)
(329.5026 40.28045 0 17.15795 0 0.6164668)
(329.5027 40.28046 0 17.15795 0 0.6164665)
(303.8129 38.28181 0 17.21517 0 0.6450714)
(303.813 38.28183 0 17.21518 0 0.6450711)
(274.766 35.67264 0 16.94586 0 0.6777923)
(274.7661 35.67265 0 16.94586 0 0.6777919)
(241.6875 32.32091 0 16.2313 0 0.7155063)
(241.6877 32.32094 0 16.23131 0 0.7155059)
(203.794 28.06973 0 14.91809 0 0.7592193)
(203.7942 28.06976 0 14.91811 0 0.759219)
(160.5159 22.78806 0 12.84291 0 0.809652)
(160.516 22.78808 0 12.84292 0 0.809652)
(112.5517 16.51885 0 9.921212 0 0.865919)
(112.5516 16.51885 0 9.921211 0 0.8659194)
(65.77253 10.09256 0 6.556779 0 0.9211485)
(65.77239 10.09255 0 6.556768 0 0.9211491)
(30.95754 5.095216 0 3.721121 0 0.962833)
(30.95745 5.095204 0 3.721112 0 0.9628336)
(13.87498 2.566792 0 2.252249 0 0.9838841)
(13.87496 2.566789 0 2.252248 0 0.9838845)
(6.192076 1.306413 0 1.489945 0 0.9934854)
(6.192066 1.306411 0 1.489943 0 0.993485)
(3.560208 0.8628955 0 1.350866 0 0.9967454)
(3.560199 0.8628934 0 1.350863 0 0.996742)
(1.514944 0.3473881 0 0.9556152 0 0.9994168)
(1.514946 0.347389 0 0.955616 0 0.9994174)
(1.167049 0.1377212 0 1.080239 0 0.9997186)
(1.167046 0.1377207 0 1.080237 0 0.9997177)
)
;

boundaryField
{
    leftandright
    {
        type            cyclic;
        value           nonuniform List<symmTensor> 
150
(
(629.4408 9.751524 0 0.3017491 0 0.3015895)
(629.3347 9.751528 0 0.3018238 0 0.3016501)
(629.1589 9.752275 0 0.3019805 0 0.3017749)
(628.9331 9.754257 0 0.3022271 0 0.3019655)
(628.6647 9.757829 0 0.3025758 0 0.3022236)
(628.3507 9.763303 0 0.303047 0 0.3025531)
(627.9797 9.771029 0 0.3036726 0 0.3029608)
(627.5349 9.781474 0 0.304499 0 0.303456)
(626.9963 9.795293 0 0.3055897 0 0.3040507)
(626.3448 9.813393 0 0.3070261 0 0.3047567)
(625.5656 9.836976 0 0.308907 0 0.3055842)
(624.6524 9.867576 0 0.3113474 0 0.3065387)
(623.6107 9.90709 0 0.3144759 0 0.307619)
(622.4613 9.957844 0 0.3184351 0 0.3088163)
(621.2397 10.02274 0 0.3233878 0 0.3101168)
(619.9897 10.10551 0 0.3295413 0 0.3115104)
(618.7327 10.21096 0 0.3372052 0 0.3130088)
(617.3538 10.34404 0 0.3469059 0 0.3146697)
(615.6269 10.50949 0 0.3595726 0 0.3165784)
(613.4943 10.71302 0 0.3759461 0 0.3187642)
(611.1486 10.96069 0 0.3963218 0 0.3211572)
(608.7774 11.25723 0 0.4211356 0 0.3236487)
(606.4465 11.60582 0 0.4509931 0 0.3261551)
(604.1809 12.00979 0 0.4866751 0 0.3286219)
(601.9933 12.47292 0 0.5291385 0 0.3310168)
(599.8904 12.99925 0 0.5795186 0 0.3333219)
(597.872 13.59272 0 0.639133 0 0.3355316)
(595.9291 14.2569 0 0.7094858 0 0.337651)
(594.0427 14.99464 0 0.7922691 0 0.3396967)
(592.1842 15.8079 0 0.8893576 0 0.3416957)
(590.3166 16.69748 0 1.002797 0 0.3436845)
(588.3967 17.66292 0 1.134783 0 0.345707)
(586.3774 18.70235 0 1.287633 0 0.3478117)
(584.2107 19.81248 0 1.463749 0 0.350049)
(581.8498 20.98862 0 1.665572 0 0.3524682)
(579.2512 22.22473 0 1.895531 0 0.3551158)
(576.3758 23.51354 0 2.155988 0 0.3580334)
(573.1897 24.84672 0 2.449178 0 0.3612574)
(569.6641 26.21499 0 2.777142 0 0.3648183)
(565.7751 27.60836 0 3.141675 0 0.3687417)
(561.5028 29.01621 0 3.544251 0 0.3730489)
(556.8303 30.42753 0 3.985976 0 0.3777579)
(551.7429 31.83105 0 4.467529 0 0.3828849)
(546.2268 33.21534 0 4.989114 0 0.3884453)
(540.2679 34.56896 0 5.550417 0 0.3944551)
(533.8512 35.88051 0 6.150576 0 0.4009324)
(526.9588 37.13869 0 6.788147 0 0.4078985)
(519.5699 38.33229 0 7.46108 0 0.4153793)
(511.6583 39.45015 0 8.166692 0 0.4234065)
(503.1925 40.48105 0 8.901637 0 0.4320194)
(494.1329 41.41359 0 9.66186 0 0.4412664)
(484.4311 42.23584 0 10.44252 0 0.4512069)
(474.0278 42.9351 0 11.23789 0 0.4619136)
(462.8502 43.49738 0 12.04116 0 0.4734752)
(450.8094 43.90679 0 12.84414 0 0.4860003)
(437.7971 44.14478 0 13.63687 0 0.4996207)
(423.6814 44.18915 0 14.40696 0 0.5144977)
(408.3017 44.01271 0 15.13866 0 0.5308286)
(391.462 43.58177 0 15.81155 0 0.5488552)
(372.9226 42.85402 0 16.39862 0 0.5688758)
(352.3902 41.77609 0 16.8637 0 0.5912597)
(329.5026 40.28045 0 17.15795 0 0.6164667)
(303.8129 38.28182 0 17.21518 0 0.6450712)
(274.7661 35.67265 0 16.94586 0 0.6777921)
(241.6876 32.32092 0 16.23131 0 0.7155061)
(203.7941 28.06974 0 14.9181 0 0.7592191)
(160.5159 22.78807 0 12.84291 0 0.809652)
(112.5516 16.51885 0 9.921211 0 0.8659192)
(65.77246 10.09256 0 6.556773 0 0.9211488)
(30.9575 5.09521 0 3.721116 0 0.9628333)
(13.87497 2.56679 0 2.252248 0 0.9838843)
(6.192071 1.306412 0 1.489944 0 0.9934852)
(3.560204 0.8628944 0 1.350865 0 0.9967437)
(1.514945 0.3473886 0 0.9556156 0 0.9994171)
(1.167048 0.137721 0 1.080238 0 0.9997181)
(629.4408 9.751524 0 0.3017491 0 0.3015895)
(629.3347 9.751528 0 0.3018238 0 0.3016501)
(629.1589 9.752275 0 0.3019805 0 0.3017749)
(628.9331 9.754257 0 0.3022271 0 0.3019655)
(628.6647 9.757829 0 0.3025758 0 0.3022236)
(628.3507 9.763303 0 0.303047 0 0.3025531)
(627.9797 9.771029 0 0.3036726 0 0.3029608)
(627.5349 9.781474 0 0.304499 0 0.303456)
(626.9963 9.795293 0 0.3055897 0 0.3040507)
(626.3448 9.813393 0 0.3070261 0 0.3047567)
(625.5656 9.836976 0 0.308907 0 0.3055842)
(624.6524 9.867576 0 0.3113474 0 0.3065387)
(623.6107 9.90709 0 0.3144759 0 0.307619)
(622.4613 9.957844 0 0.3184351 0 0.3088163)
(621.2397 10.02274 0 0.3233878 0 0.3101168)
(619.9897 10.10551 0 0.3295413 0 0.3115104)
(618.7327 10.21096 0 0.3372052 0 0.3130088)
(617.3538 10.34404 0 0.3469059 0 0.3146697)
(615.6269 10.50949 0 0.3595726 0 0.3165784)
(613.4943 10.71302 0 0.3759461 0 0.3187642)
(611.1486 10.96069 0 0.3963218 0 0.3211572)
(608.7774 11.25723 0 0.4211356 0 0.3236487)
(606.4465 11.60582 0 0.4509931 0 0.3261551)
(604.1809 12.00979 0 0.4866751 0 0.3286219)
(601.9933 12.47292 0 0.5291385 0 0.3310168)
(599.8904 12.99925 0 0.5795186 0 0.3333219)
(597.872 13.59272 0 0.639133 0 0.3355316)
(595.9291 14.2569 0 0.7094858 0 0.337651)
(594.0427 14.99464 0 0.7922691 0 0.3396967)
(592.1842 15.8079 0 0.8893576 0 0.3416957)
(590.3166 16.69748 0 1.002797 0 0.3436845)
(588.3967 17.66292 0 1.134783 0 0.345707)
(586.3774 18.70235 0 1.287633 0 0.3478117)
(584.2107 19.81248 0 1.463749 0 0.350049)
(581.8498 20.98862 0 1.665572 0 0.3524682)
(579.2512 22.22473 0 1.895531 0 0.3551158)
(576.3758 23.51354 0 2.155988 0 0.3580334)
(573.1897 24.84672 0 2.449178 0 0.3612574)
(569.6641 26.21499 0 2.777142 0 0.3648183)
(565.7751 27.60836 0 3.141675 0 0.3687417)
(561.5028 29.01621 0 3.544251 0 0.3730489)
(556.8303 30.42753 0 3.985976 0 0.3777579)
(551.7429 31.83105 0 4.467529 0 0.3828849)
(546.2268 33.21534 0 4.989114 0 0.3884453)
(540.2679 34.56896 0 5.550417 0 0.3944551)
(533.8512 35.88051 0 6.150576 0 0.4009324)
(526.9588 37.13869 0 6.788147 0 0.4078985)
(519.5699 38.33229 0 7.46108 0 0.4153793)
(511.6583 39.45015 0 8.166692 0 0.4234065)
(503.1925 40.48105 0 8.901637 0 0.4320194)
(494.1329 41.41359 0 9.66186 0 0.4412664)
(484.4311 42.23584 0 10.44252 0 0.4512069)
(474.0278 42.9351 0 11.23789 0 0.4619136)
(462.8502 43.49738 0 12.04116 0 0.4734752)
(450.8094 43.90679 0 12.84414 0 0.4860003)
(437.7971 44.14478 0 13.63687 0 0.4996207)
(423.6814 44.18915 0 14.40696 0 0.5144977)
(408.3017 44.01271 0 15.13866 0 0.5308286)
(391.462 43.58177 0 15.81155 0 0.5488552)
(372.9226 42.85402 0 16.39862 0 0.5688758)
(352.3902 41.77609 0 16.8637 0 0.5912597)
(329.5026 40.28045 0 17.15795 0 0.6164667)
(303.8129 38.28182 0 17.21518 0 0.6450712)
(274.7661 35.67265 0 16.94586 0 0.6777921)
(241.6876 32.32092 0 16.23131 0 0.7155061)
(203.7941 28.06974 0 14.9181 0 0.7592191)
(160.5159 22.78807 0 12.84291 0 0.809652)
(112.5516 16.51885 0 9.921211 0 0.8659192)
(65.77246 10.09256 0 6.556773 0 0.9211488)
(30.9575 5.09521 0 3.721116 0 0.9628333)
(13.87497 2.56679 0 2.252248 0 0.9838843)
(6.192071 1.306412 0 1.489944 0 0.9934852)
(3.560204 0.8628944 0 1.350865 0 0.9967437)
(1.514945 0.3473886 0 0.9556156 0 0.9994171)
(1.167048 0.137721 0 1.080238 0 0.9997181)
)
;
    }
    wall
    {
        type            zeroGradient;
    }
    frontAndBack
    {
        type            empty;
    }
    middle
    {
        type            symmetryPlane;
        value           nonuniform List<symmTensor> 2((1.167049 0 0 1.080239 0 0.9997186) (1.167046 0 0 1.080237 0 0.9997177));
    }
}


// ************************************************************************* //
