/*--------------------------------*- C++ -*----------------------------------*\
| =========                 |                                                 |
| \\      /  F ield         | foam-extend: Open Source CFD                    |
|  \\    /   O peration     | Version:     4.0                                |
|   \\  /    A nd           | Web:         http://www.foam-extend.org         |
|    \\/     M anipulation  |                                                 |
\*---------------------------------------------------------------------------*/
FoamFile
{
    version     2.0;
    format      ascii;
    class       volScalarField;
    location    "100";
    object      Ceps1;
}
// * * * * * * * * * * * * * * * * * * * * * * * * * * * * * * * * * * * * * //

dimensions      [0 0 0 0 0 0 0];

internalField   nonuniform List<scalar> 
150
(
12.2183
12.2183
6.441238
6.441238
4.659181
4.659181
3.809014
3.809014
3.314477
3.314477
2.992339
2.992339
2.766622
2.766622
2.600221
2.600221
2.472872
2.472872
2.372564
2.372564
2.291718
2.291718
2.225306
2.225306
2.169853
2.169853
2.122881
2.122881
2.082573
2.082573
2.047571
2.047571
2.016841
2.016841
1.989589
1.989589
1.965262
1.965262
1.943329
1.943329
1.923234
1.923234
1.90454
1.90454
1.886938
1.886938
1.870207
1.870207
1.854196
1.854196
1.838803
1.838803
1.823959
1.823959
1.80962
1.80962
1.795761
1.795761
1.782366
1.782366
1.769427
1.769427
1.75694
1.75694
1.744902
1.744902
1.733313
1.733313
1.722168
1.722168
1.711465
1.711465
1.701199
1.701199
1.691362
1.691362
1.681946
1.681946
1.67294
1.67294
1.664333
1.664333
1.656111
1.656111
1.64826
1.64826
1.640764
1.640764
1.633608
1.633608
1.626775
1.626775
1.620248
1.620248
1.614009
1.614009
1.608042
1.608042
1.602328
1.602328
1.596851
1.596851
1.591592
1.591592
1.586535
1.586535
1.581662
1.581662
1.576957
1.576957
1.572405
1.572405
1.56799
1.56799
1.563699
1.563699
1.559519
1.559519
1.555442
1.555442
1.55146
1.55146
1.547572
1.547572
1.543779
1.543779
1.540092
1.540092
1.536525
1.536525
1.533105
1.533105
1.529866
1.529866
1.526857
1.526857
1.524143
1.524143
1.521818
1.521818
1.519917
1.519917
1.518391
1.518391
1.517221
1.517221
1.516412
1.516412
1.515985
1.515985
)
;

boundaryField
{
    leftandright
    {
        type            cyclic;
        value           nonuniform List<scalar> 
150
(
12.2183
6.441238
4.659181
3.809014
3.314477
2.992339
2.766622
2.600221
2.472872
2.372564
2.291718
2.225306
2.169853
2.122881
2.082573
2.047571
2.016841
1.989589
1.965262
1.943329
1.923234
1.90454
1.886938
1.870207
1.854196
1.838803
1.823959
1.80962
1.795761
1.782366
1.769427
1.75694
1.744902
1.733313
1.722168
1.711465
1.701199
1.691362
1.681946
1.67294
1.664333
1.656111
1.64826
1.640764
1.633608
1.626775
1.620248
1.614009
1.608042
1.602328
1.596851
1.591592
1.586535
1.581662
1.576957
1.572405
1.56799
1.563699
1.559519
1.555442
1.55146
1.547572
1.543779
1.540092
1.536525
1.533105
1.529866
1.526857
1.524143
1.521818
1.519917
1.518391
1.517221
1.516412
1.515985
12.2183
6.441238
4.659181
3.809014
3.314477
2.992339
2.766622
2.600221
2.472872
2.372564
2.291718
2.225306
2.169853
2.122881
2.082573
2.047571
2.016841
1.989589
1.965262
1.943329
1.923234
1.90454
1.886938
1.870207
1.854196
1.838803
1.823959
1.80962
1.795761
1.782366
1.769427
1.75694
1.744902
1.733313
1.722168
1.711465
1.701199
1.691362
1.681946
1.67294
1.664333
1.656111
1.64826
1.640764
1.633608
1.626775
1.620248
1.614009
1.608042
1.602328
1.596851
1.591592
1.586535
1.581662
1.576957
1.572405
1.56799
1.563699
1.559519
1.555442
1.55146
1.547572
1.543779
1.540092
1.536525
1.533105
1.529866
1.526857
1.524143
1.521818
1.519917
1.518391
1.517221
1.516412
1.515985
)
;
    }
    wall
    {
        type            calculated;
        value           uniform 1.463;
    }
    frontAndBack
    {
        type            empty;
    }
    middle
    {
        type            symmetryPlane;
        value           nonuniform List<scalar> 2(1.515985 1.515985);
    }
}


// ************************************************************************* //
