/*--------------------------------*- C++ -*----------------------------------*\
| =========                 |                                                 |
| \\      /  F ield         | foam-extend: Open Source CFD                    |
|  \\    /   O peration     | Version:     4.0                                |
|   \\  /    A nd           | Web:         http://www.foam-extend.org         |
|    \\/     M anipulation  |                                                 |
\*---------------------------------------------------------------------------*/
FoamFile
{
    version     2.0;
    format      ascii;
    class       volSymmTensorField;
    location    "100";
    object      DiffC;
}
// * * * * * * * * * * * * * * * * * * * * * * * * * * * * * * * * * * * * * //

dimensions      [0 0 -1 0 0 0 0];

internalField   nonuniform List<symmTensor> 
150
(
(-6.672985 0.0003155804 0 0.004699639 0 0.003810679)
(-6.672749 0.0001454825 0 0.004693971 0 0.003807031)
(-3.658958 0.04218441 0 0.004446752 0 0.003480211)
(-3.652274 0.0424847 0 0.004452447 0 0.003477444)
(-2.113167 0.06147636 0 0.004215507 0 0.003059026)
(-2.108986 0.06170022 0 0.004219637 0 0.003056874)
(-1.450457 0.06936589 0 0.004172143 0 0.002697488)
(-1.448192 0.06950737 0 0.004174678 0 0.002696179)
(-1.34821 0.0725235 0 0.004415369 0 0.002456336)
(-1.347501 0.07258592 0 0.004416418 0 0.002455893)
(-1.560223 0.07530882 0 0.004976694 0 0.002338726)
(-1.560692 0.07530654 0 0.004976577 0 0.002339015)
(-1.898553 0.0803501 0 0.005839619 0 0.002310182)
(-1.899749 0.08030517 0 0.005838786 0 0.002310967)
(-2.219977 0.08892244 0 0.006947212 0 0.002315494)
(-2.221441 0.08885899 0 0.006946124 0 0.0023165)
(-2.417935 0.1012621 0 0.008209403 0 0.002293253)
(-2.419307 0.1012004 0 0.008208429 0 0.002294246)
(-2.419597 0.1168644 0 0.009514627 0 0.002188733)
(-2.420684 0.1168169 0 0.009513974 0 0.002189565)
(-2.18627 0.1348339 0 0.01074985 0 0.001965564)
(-2.187041 0.134804 0 0.01074955 0 0.001966188)
(-1.71448 0.1543493 0 0.01183132 0 0.001616511)
(-1.715001 0.1543341 0 0.0118313 0 0.001616951)
(-1.036967 0.1752521 0 0.01274677 0 0.001174075)
(-1.03733 0.1752456 0 0.01274688 0 0.001174389)
(-0.2314338 0.198609 0 0.01361198 0 0.0007227761)
(-0.2317132 0.1986058 0 0.01361212 0 0.0007230214)
(0.5310403 0.226667 0 0.01475482 0 0.000414274)
(0.5307989 0.2266633 0 0.01475491 0 0.0004144875)
(0.8021166 0.2601447 0 0.01685301 0 0.0004719512)
(0.8018827 0.2601381 0 0.01685304 0 0.0004721477)
(-0.7361219 0.2835179 0 0.02098384 0 0.001096697)
(-0.7363952 0.2835078 0 0.02098382 0 0.001096881)
(-3.202581 0.2953396 0 0.02851912 0 0.001880681)
(-3.202886 0.2953265 0 0.02851905 0 0.001880835)
(-3.318529 0.3094633 0 0.03196848 0 0.001876203)
(-3.318803 0.309448 0 0.03196831 0 0.001876313)
(-0.9839388 0.319178 0 0.02993934 0 0.0009023805)
(-0.9841661 0.3191598 0 0.02993902 0 0.0009024546)
(0.8090029 0.3099625 0 0.02907742 0 -0.0002026508)
(0.8088208 0.3099451 0 0.02907695 0 -0.0002025974)
(1.250654 0.2858443 0 0.02925363 0 -0.0008727712)
(1.250737 0.2858354 0 0.02925311 0 -0.0008728061)
(1.293262 0.2634056 0 0.03014469 0 -0.001175059)
(1.293451 0.2634006 0 0.03014428 0 -0.001175142)
(1.230394 0.2444911 0 0.03146924 0 -0.00125738)
(1.230433 0.2444888 0 0.031469 0 -0.001257379)
(1.129198 0.2270971 0 0.03301378 0 -0.001218563)
(1.129193 0.2270946 0 0.03301355 0 -0.001218542)
(0.9982691 0.2092841 0 0.03462869 0 -0.001109369)
(0.9982546 0.209281 0 0.03462841 0 -0.00110936)
(0.8405506 0.1899783 0 0.0362011 0 -0.0009561306)
(0.8405599 0.1899766 0 0.036201 0 -0.0009561442)
(0.6638552 0.1687927 0 0.03763543 0 -0.0007757721)
(0.6639021 0.1687893 0 0.03763521 0 -0.0007758099)
(0.4796122 0.1457664 0 0.03884309 0 -0.0005832881)
(0.4794861 0.1457662 0 0.03884292 0 -0.000583239)
(0.299878 0.1213013 0 0.03974439 0 -0.0003920563)
(0.2997356 0.1212996 0 0.03974437 0 -0.0003919902)
(0.1360625 0.09597544 0 0.04026925 0 -0.0002147321)
(0.1361196 0.09596821 0 0.0402702 0 -0.0002147159)
(-0.003388337 0.07047133 0 0.04036483 0 -6.033769e-05)
(-0.003421927 0.0704717 0 0.04036305 0 -6.055686e-05)
(-0.1144114 0.04547238 0 0.03998739 0 6.46477e-05)
(-0.1143946 0.04548546 0 0.03998917 0 6.471359e-05)
(-0.1954896 0.02169333 0 0.03912782 0 0.0001582936)
(-0.195478 0.02169411 0 0.03912593 0 0.0001582983)
(-0.2480656 -0.0003021032 0 0.03777785 0 0.000221904)
(-0.2481487 -0.0003087509 0 0.03777855 0 0.0002219171)
(-0.2762556 -0.02011033 0 0.03596488 0 0.0002585131)
(-0.2762882 -0.02011212 0 0.03596507 0 0.0002585172)
(-0.2843179 -0.03734681 0 0.03372613 0 0.0002729965)
(-0.2844044 -0.03734472 0 0.03372709 0 0.0002730232)
(-0.2776141 -0.05194388 0 0.03110797 0 0.0002705686)
(-0.2775986 -0.05196096 0 0.03110566 0 0.0002705493)
(-0.2607491 -0.06380993 0 0.02817652 0 0.0002569532)
(-0.2606057 -0.06379284 0 0.02817803 0 0.0002569133)
(-0.2375588 -0.07306115 0 0.02499664 0 0.0002358943)
(-0.2376707 -0.07307174 0 0.02499497 0 0.0002359298)
(-0.211926 -0.07982056 0 0.02164656 0 0.0002116993)
(-0.2118921 -0.07982105 0 0.02164766 0 0.0002117516)
(-0.1857032 -0.08432936 0 0.01819758 0 0.0001870993)
(-0.1858459 -0.0843289 0 0.01819715 0 0.0001869895)
(-0.1610874 -0.08686008 0 0.01472173 0 0.0001635537)
(-0.1610047 -0.08685932 0 0.01472121 0 0.0001635772)
(-0.1389211 -0.08765261 0 0.01128644 0 0.0001427939)
(-0.1390506 -0.08766578 0 0.01128608 0 0.0001428139)
(-0.1198926 -0.0870271 0 0.007951977 0 0.0001254018)
(-0.1199323 -0.08702322 0 0.007952469 0 0.000125395)
(-0.1044884 -0.08525035 0 0.004769381 0 0.000111686)
(-0.1045473 -0.08525347 0 0.004768476 0 0.0001117251)
(-0.09248725 -0.08259331 0 0.001777519 0 0.0001016585)
(-0.09250839 -0.08259693 0 0.001776893 0 0.0001015751)
(-0.08398952 -0.07931734 0 -0.0009955366 0 9.515964e-05)
(-0.08409168 -0.07931432 0 -0.0009951943 0 9.514126e-05)
(-0.07865397 -0.07563957 0 -0.003534472 0 9.211325e-05)
(-0.07877164 -0.07564764 0 -0.003535852 0 9.20955e-05)
(-0.07649601 -0.07177526 0 -0.005837932 0 9.212458e-05)
(-0.07652921 -0.07178344 0 -0.005838179 0 9.205297e-05)
(-0.07698873 -0.06792716 0 -0.007919513 0 9.497423e-05)
(-0.07703577 -0.06792791 0 -0.007921451 0 9.502484e-05)
(-0.08002656 -0.06423647 0 -0.009808229 0 0.0001004921)
(-0.08010024 -0.06423755 0 -0.009807473 0 0.0001004414)
(-0.08546421 -0.06085305 0 -0.01154184 0 0.0001084192)
(-0.08546827 -0.06085623 0 -0.01154234 0 0.0001083874)
(-0.09305891 -0.0579106 0 -0.01318337 0 0.0001188)
(-0.09308489 -0.05791384 0 -0.01318131 0 0.0001187532)
(-0.1027542 -0.05551738 0 -0.01480254 0 0.0001313568)
(-0.1027669 -0.05551667 0 -0.01480858 0 0.0001313766)
(-0.1144987 -0.05376113 0 -0.01650202 0 0.0001464352)
(-0.1145166 -0.0537626 0 -0.01649803 0 0.0001464133)
(-0.128276 -0.05274304 0 -0.01838165 0 0.0001639398)
(-0.1282901 -0.05274687 0 -0.01838704 0 0.0001639765)
(-0.1442129 -0.05253895 0 -0.02059156 0 0.0001842757)
(-0.1442252 -0.05253922 0 -0.02058977 0 0.0001842934)
(-0.1624917 -0.05322681 0 -0.02328767 0 0.0002077516)
(-0.1625038 -0.05322785 0 -0.02328762 0 0.0002077707)
(-0.183302 -0.05487493 0 -0.02664795 0 0.0002349226)
(-0.1833129 -0.05487399 0 -0.02664634 0 0.0002349274)
(-0.2071947 -0.05753994 0 -0.03088129 0 0.0002664349)
(-0.2072094 -0.05754467 0 -0.03088414 0 0.0002664705)
(-0.2344336 -0.06126531 0 -0.03620304 0 0.0003029033)
(-0.2344469 -0.06126813 0 -0.03620443 0 0.0003029658)
(-0.2657401 -0.06609018 0 -0.04283094 0 0.0003450487)
(-0.2657422 -0.06609332 0 -0.04283349 0 0.0003450875)
(-0.299665 -0.07168036 0 -0.05077099 0 0.0003906797)
(-0.2997027 -0.07168118 0 -0.05076877 0 0.0003907601)
(-0.332729 -0.07754478 0 -0.05986648 0 0.0004335774)
(-0.3327599 -0.07755019 0 -0.05986814 0 0.0004336566)
(-0.332331 -0.0783862 0 -0.06697923 0 0.000432346)
(-0.3323728 -0.07839236 0 -0.0669842 0 0.0004324088)
(-0.2158446 -0.06260537 0 -0.06460126 0 0.0002841132)
(-0.2158729 -0.06261059 0 -0.06460344 0 0.0002841445)
(0.2871816 0.0128995 0 -0.02316968 0 -0.0003090119)
(0.2872029 0.01290183 0 -0.02316928 0 -0.0003090894)
(1.026036 0.1256111 0 0.05008519 0 -0.001169858)
(1.026069 0.125615 0 0.05008795 0 -0.001169988)
(1.262288 0.176247 0 0.09779816 0 -0.001472636)
(1.262303 0.1762491 0 0.09779974 0 -0.001472741)
(0.6015192 0.08181714 0 0.04576897 0 -0.0007334117)
(0.6015186 0.08181713 0 0.04576873 0 -0.0007335178)
(0.2885083 0.04670639 0 0.03509481 0 -0.0003621173)
(0.2885094 0.04670666 0 0.035095 0 -0.0003621702)
(0.03459133 -0.002366012 0 -0.01194758 0 -3.650359e-05)
(0.03459311 -0.002365527 0 -0.01194697 0 -3.560429e-05)
(0.07823461 0.01442292 0 0.02344884 0 -0.0001087679)
(0.0782335 0.01442257 0 0.02344847 0 -0.0001091054)
(0.01436997 -0.002440358 0 -0.005147876 0 -1.254295e-05)
(0.01437066 -0.002440157 0 -0.005147478 0 -1.232607e-05)
)
;

boundaryField
{
    leftandright
    {
        type            cyclic;
        value           nonuniform List<symmTensor> 
150
(
(-6.672867 0.0002305315 0 0.004696805 0 0.003808855)
(-3.655616 0.04233455 0 0.004449599 0 0.003478828)
(-2.111077 0.06158829 0 0.004217572 0 0.00305795)
(-1.449324 0.06943663 0 0.00417341 0 0.002696834)
(-1.347855 0.07255471 0 0.004415893 0 0.002456115)
(-1.560458 0.07530768 0 0.004976635 0 0.002338871)
(-1.899151 0.08032763 0 0.005839202 0 0.002310574)
(-2.220709 0.08889071 0 0.006946668 0 0.002315997)
(-2.418621 0.1012312 0 0.008208916 0 0.00229375)
(-2.420141 0.1168407 0 0.009514301 0 0.002189149)
(-2.186655 0.134819 0 0.0107497 0 0.001965876)
(-1.714741 0.1543417 0 0.01183131 0 0.001616731)
(-1.037149 0.1752488 0 0.01274683 0 0.001174232)
(-0.2315735 0.1986074 0 0.01361205 0 0.0007228987)
(0.5309196 0.2266652 0 0.01475486 0 0.0004143808)
(0.8019997 0.2601414 0 0.01685303 0 0.0004720494)
(-0.7362585 0.2835129 0 0.02098383 0 0.001096789)
(-3.202734 0.2953331 0 0.02851909 0 0.001880758)
(-3.318666 0.3094556 0 0.03196839 0 0.001876258)
(-0.9840525 0.3191689 0 0.02993918 0 0.0009024175)
(0.8089118 0.3099538 0 0.02907719 0 -0.0002026241)
(1.250695 0.2858398 0 0.02925337 0 -0.0008727886)
(1.293356 0.2634031 0 0.03014449 0 -0.0011751)
(1.230413 0.2444899 0 0.03146912 0 -0.001257379)
(1.129196 0.2270958 0 0.03301367 0 -0.001218552)
(0.9982618 0.2092826 0 0.03462855 0 -0.001109365)
(0.8405553 0.1899774 0 0.03620105 0 -0.0009561374)
(0.6638787 0.168791 0 0.03763532 0 -0.000775791)
(0.4795492 0.1457663 0 0.038843 0 -0.0005832636)
(0.2998068 0.1213004 0 0.03974438 0 -0.0003920232)
(0.1360911 0.09597182 0 0.04026973 0 -0.000214724)
(-0.003405132 0.07047151 0 0.04036394 0 -6.044727e-05)
(-0.114403 0.04547892 0 0.03998828 0 6.468064e-05)
(-0.1954838 0.02169372 0 0.03912687 0 0.000158296)
(-0.2481072 -0.000305427 0 0.0377782 0 0.0002219105)
(-0.2762719 -0.02011123 0 0.03596498 0 0.0002585152)
(-0.2843612 -0.03734576 0 0.03372661 0 0.0002730098)
(-0.2776063 -0.05195242 0 0.03110681 0 0.0002705589)
(-0.2606774 -0.06380139 0 0.02817727 0 0.0002569332)
(-0.2376148 -0.07306644 0 0.02499581 0 0.000235912)
(-0.211909 -0.07982081 0 0.02164711 0 0.0002117255)
(-0.1857746 -0.08432913 0 0.01819737 0 0.0001870444)
(-0.1610461 -0.0868597 0 0.01472147 0 0.0001635654)
(-0.1389858 -0.0876592 0 0.01128626 0 0.0001428039)
(-0.1199124 -0.08702516 0 0.007952223 0 0.0001253984)
(-0.1045179 -0.08525191 0 0.004768928 0 0.0001117055)
(-0.09249782 -0.08259512 0 0.001777206 0 0.0001016168)
(-0.0840406 -0.07931583 0 -0.0009953655 0 9.515045e-05)
(-0.07871281 -0.0756436 0 -0.003535162 0 9.210437e-05)
(-0.07651261 -0.07177935 0 -0.005838056 0 9.208877e-05)
(-0.07701225 -0.06792754 0 -0.007920482 0 9.499953e-05)
(-0.0800634 -0.06423701 0 -0.009807851 0 0.0001004667)
(-0.08546624 -0.06085464 0 -0.01154209 0 0.0001084033)
(-0.0930719 -0.05791222 0 -0.01318234 0 0.0001187766)
(-0.1027605 -0.05551702 0 -0.01480556 0 0.0001313667)
(-0.1145076 -0.05376187 0 -0.01650002 0 0.0001464243)
(-0.1282831 -0.05274495 0 -0.01838434 0 0.0001639581)
(-0.144219 -0.05253909 0 -0.02059066 0 0.0001842846)
(-0.1624977 -0.05322733 0 -0.02328764 0 0.0002077612)
(-0.1833074 -0.05487446 0 -0.02664714 0 0.000234925)
(-0.2072021 -0.05754231 0 -0.03088272 0 0.0002664527)
(-0.2344403 -0.06126672 0 -0.03620373 0 0.0003029346)
(-0.2657411 -0.06609175 0 -0.04283222 0 0.0003450681)
(-0.2996839 -0.07168077 0 -0.05076988 0 0.0003907199)
(-0.3327445 -0.07754748 0 -0.05986731 0 0.000433617)
(-0.3323519 -0.07838928 0 -0.06698171 0 0.0004323774)
(-0.2158588 -0.06260798 0 -0.06460235 0 0.0002841289)
(0.2871922 0.01290067 0 -0.02316948 0 -0.0003090507)
(1.026053 0.1256131 0 0.05008657 0 -0.001169923)
(1.262295 0.1762481 0 0.09779895 0 -0.001472689)
(0.6015189 0.08181714 0 0.04576885 0 -0.0007334647)
(0.2885088 0.04670653 0 0.03509491 0 -0.0003621438)
(0.03459222 -0.002365769 0 -0.01194727 0 -3.605394e-05)
(0.07823406 0.01442275 0 0.02344866 0 -0.0001089366)
(0.01437032 -0.002440257 0 -0.005147677 0 -1.243451e-05)
(-6.672867 0.0002305315 0 0.004696805 0 0.003808855)
(-3.655616 0.04233455 0 0.004449599 0 0.003478828)
(-2.111077 0.06158829 0 0.004217572 0 0.00305795)
(-1.449324 0.06943663 0 0.00417341 0 0.002696834)
(-1.347855 0.07255471 0 0.004415893 0 0.002456115)
(-1.560458 0.07530768 0 0.004976635 0 0.002338871)
(-1.899151 0.08032763 0 0.005839202 0 0.002310574)
(-2.220709 0.08889071 0 0.006946668 0 0.002315997)
(-2.418621 0.1012312 0 0.008208916 0 0.00229375)
(-2.420141 0.1168407 0 0.009514301 0 0.002189149)
(-2.186655 0.134819 0 0.0107497 0 0.001965876)
(-1.714741 0.1543417 0 0.01183131 0 0.001616731)
(-1.037149 0.1752488 0 0.01274683 0 0.001174232)
(-0.2315735 0.1986074 0 0.01361205 0 0.0007228987)
(0.5309196 0.2266652 0 0.01475486 0 0.0004143808)
(0.8019997 0.2601414 0 0.01685303 0 0.0004720494)
(-0.7362585 0.2835129 0 0.02098383 0 0.001096789)
(-3.202734 0.2953331 0 0.02851909 0 0.001880758)
(-3.318666 0.3094556 0 0.03196839 0 0.001876258)
(-0.9840525 0.3191689 0 0.02993918 0 0.0009024175)
(0.8089118 0.3099538 0 0.02907719 0 -0.0002026241)
(1.250695 0.2858398 0 0.02925337 0 -0.0008727886)
(1.293356 0.2634031 0 0.03014449 0 -0.0011751)
(1.230413 0.2444899 0 0.03146912 0 -0.001257379)
(1.129196 0.2270958 0 0.03301367 0 -0.001218552)
(0.9982618 0.2092826 0 0.03462855 0 -0.001109365)
(0.8405553 0.1899774 0 0.03620105 0 -0.0009561374)
(0.6638787 0.168791 0 0.03763532 0 -0.000775791)
(0.4795492 0.1457663 0 0.038843 0 -0.0005832636)
(0.2998068 0.1213004 0 0.03974438 0 -0.0003920232)
(0.1360911 0.09597182 0 0.04026973 0 -0.000214724)
(-0.003405132 0.07047151 0 0.04036394 0 -6.044727e-05)
(-0.114403 0.04547892 0 0.03998828 0 6.468064e-05)
(-0.1954838 0.02169372 0 0.03912687 0 0.000158296)
(-0.2481072 -0.000305427 0 0.0377782 0 0.0002219105)
(-0.2762719 -0.02011123 0 0.03596498 0 0.0002585152)
(-0.2843612 -0.03734576 0 0.03372661 0 0.0002730098)
(-0.2776063 -0.05195242 0 0.03110681 0 0.0002705589)
(-0.2606774 -0.06380139 0 0.02817727 0 0.0002569332)
(-0.2376148 -0.07306644 0 0.02499581 0 0.000235912)
(-0.211909 -0.07982081 0 0.02164711 0 0.0002117255)
(-0.1857746 -0.08432913 0 0.01819737 0 0.0001870444)
(-0.1610461 -0.0868597 0 0.01472147 0 0.0001635654)
(-0.1389858 -0.0876592 0 0.01128626 0 0.0001428039)
(-0.1199124 -0.08702516 0 0.007952223 0 0.0001253984)
(-0.1045179 -0.08525191 0 0.004768928 0 0.0001117055)
(-0.09249782 -0.08259512 0 0.001777206 0 0.0001016168)
(-0.0840406 -0.07931583 0 -0.0009953655 0 9.515045e-05)
(-0.07871281 -0.0756436 0 -0.003535162 0 9.210437e-05)
(-0.07651261 -0.07177935 0 -0.005838056 0 9.208877e-05)
(-0.07701225 -0.06792754 0 -0.007920482 0 9.499953e-05)
(-0.0800634 -0.06423701 0 -0.009807851 0 0.0001004667)
(-0.08546624 -0.06085464 0 -0.01154209 0 0.0001084033)
(-0.0930719 -0.05791222 0 -0.01318234 0 0.0001187766)
(-0.1027605 -0.05551702 0 -0.01480556 0 0.0001313667)
(-0.1145076 -0.05376187 0 -0.01650002 0 0.0001464243)
(-0.1282831 -0.05274495 0 -0.01838434 0 0.0001639581)
(-0.144219 -0.05253909 0 -0.02059066 0 0.0001842846)
(-0.1624977 -0.05322733 0 -0.02328764 0 0.0002077612)
(-0.1833074 -0.05487446 0 -0.02664714 0 0.000234925)
(-0.2072021 -0.05754231 0 -0.03088272 0 0.0002664527)
(-0.2344403 -0.06126672 0 -0.03620373 0 0.0003029346)
(-0.2657411 -0.06609175 0 -0.04283222 0 0.0003450681)
(-0.2996839 -0.07168077 0 -0.05076988 0 0.0003907199)
(-0.3327445 -0.07754748 0 -0.05986731 0 0.000433617)
(-0.3323519 -0.07838928 0 -0.06698171 0 0.0004323774)
(-0.2158588 -0.06260798 0 -0.06460235 0 0.0002841289)
(0.2871922 0.01290067 0 -0.02316948 0 -0.0003090507)
(1.026053 0.1256131 0 0.05008657 0 -0.001169923)
(1.262295 0.1762481 0 0.09779895 0 -0.001472689)
(0.6015189 0.08181714 0 0.04576885 0 -0.0007334647)
(0.2885088 0.04670653 0 0.03509491 0 -0.0003621438)
(0.03459222 -0.002365769 0 -0.01194727 0 -3.605394e-05)
(0.07823406 0.01442275 0 0.02344866 0 -0.0001089366)
(0.01437032 -0.002440257 0 -0.005147677 0 -1.243451e-05)
)
;
    }
    wall
    {
        type            calculated;
        value           nonuniform List<symmTensor> 2((-6.672985 0.0003155804 0 0.004699639 0 0.003810679) (-6.672749 0.0001454825 0 0.004693971 0 0.003807031));
    }
    frontAndBack
    {
        type            empty;
    }
    middle
    {
        type            symmetryPlane;
        value           nonuniform List<symmTensor> 2((0.01436997 0 0 -0.005147876 0 -1.254295e-05) (0.01437066 0 0 -0.005147478 0 -1.232607e-05));
    }
}


// ************************************************************************* //
