/*--------------------------------*- C++ -*----------------------------------*\
| =========                 |                                                 |
| \\      /  F ield         | foam-extend: Open Source CFD                    |
|  \\    /   O peration     | Version:     4.0                                |
|   \\  /    A nd           | Web:         http://www.foam-extend.org         |
|    \\/     M anipulation  |                                                 |
\*---------------------------------------------------------------------------*/
FoamFile
{
    version     2.0;
    format      ascii;
    class       volScalarField;
    location    "100";
    object      epsilon;
}
// * * * * * * * * * * * * * * * * * * * * * * * * * * * * * * * * * * * * * //

dimensions      [0 2 -3 0 0 0 0];

internalField   nonuniform List<scalar> 
150
(
23.72439
23.72439
22.3861
22.3861
21.1392
21.1392
19.99049
19.99049
18.94732
18.94732
18.01764
18.01764
17.20999
17.20999
16.53343
16.53344
15.99734
15.99734
15.61107
15.61107
15.38359
15.38359
15.32286
15.32286
15.43536
15.43536
15.72544
15.72544
16.19503
16.19503
16.84335
16.84335
17.66715
17.66715
18.66119
18.66119
19.81795
19.81795
21.09828
21.09828
22.44078
22.44078
23.78747
23.78747
25.08278
25.08278
26.27554
26.27554
27.32094
27.32094
28.18222
28.18222
28.83189
28.83189
29.25239
29.25239
29.43611
29.43611
29.38476
29.38476
29.10831
29.10831
28.62348
28.62348
27.95212
27.95212
27.11948
27.11948
26.15257
26.15257
25.07877
25.07877
23.92462
23.92462
22.71497
22.71497
21.47231
21.47231
20.21645
20.21645
18.96431
18.96431
17.72999
17.72999
16.52486
16.52486
15.35781
15.35781
14.23549
14.23549
13.16264
13.16264
12.14234
12.14234
11.17631
11.17631
10.26517
10.26517
9.40869
9.40869
8.605939
8.605939
7.855517
7.855517
7.155669
7.155669
6.504416
6.504416
5.899652
5.899652
5.339222
5.339222
4.82098
4.82098
4.342835
4.342835
3.902773
3.902773
3.49888
3.49888
3.129338
3.129338
2.792416
2.792416
2.486459
2.486459
2.209856
2.209856
1.96102
1.96102
1.738362
1.738362
1.540287
1.540287
1.365225
1.365225
1.211735
1.211735
1.078741
1.078741
0.9658002
0.9658002
0.8731658
0.8731658
0.8015084
0.8015084
0.7518437
0.7518437
0.7257017
0.7257016
)
;

boundaryField
{
    leftandright
    {
        type            cyclic;
        value           nonuniform List<scalar> 
150
(
23.72439
22.3861
21.1392
19.99049
18.94732
18.01764
17.20999
16.53344
15.99734
15.61107
15.38359
15.32286
15.43536
15.72544
16.19503
16.84335
17.66715
18.66119
19.81795
21.09828
22.44078
23.78747
25.08278
26.27554
27.32094
28.18222
28.83189
29.25239
29.43611
29.38476
29.10831
28.62348
27.95212
27.11948
26.15257
25.07877
23.92462
22.71497
21.47231
20.21645
18.96431
17.72999
16.52486
15.35781
14.23549
13.16264
12.14234
11.17631
10.26517
9.40869
8.605939
7.855517
7.155669
6.504416
5.899652
5.339222
4.82098
4.342835
3.902773
3.49888
3.129338
2.792416
2.486459
2.209856
1.96102
1.738362
1.540287
1.365225
1.211735
1.078741
0.9658002
0.8731658
0.8015084
0.7518437
0.7257017
23.72439
22.3861
21.1392
19.99049
18.94732
18.01764
17.20999
16.53344
15.99734
15.61107
15.38359
15.32286
15.43536
15.72544
16.19503
16.84335
17.66715
18.66119
19.81795
21.09828
22.44078
23.78747
25.08278
26.27554
27.32094
28.18222
28.83189
29.25239
29.43611
29.38476
29.10831
28.62348
27.95212
27.11948
26.15257
25.07877
23.92462
22.71497
21.47231
20.21645
18.96431
17.72999
16.52486
15.35781
14.23549
13.16264
12.14234
11.17631
10.26517
9.40869
8.605939
7.855517
7.155669
6.504416
5.899652
5.339222
4.82098
4.342835
3.902773
3.49888
3.129338
2.792416
2.486459
2.209856
1.96102
1.738362
1.540287
1.365225
1.211735
1.078741
0.9658002
0.8731658
0.8015084
0.7518437
0.7257017
)
;
    }
    wall
    {
        type            groovyBC;
        refValue        nonuniform List<scalar> 2(24.45379 24.45379);
        refGradient     uniform 0;
        valueFraction   uniform 1;
        value           nonuniform List<scalar> 2(24.45379 24.45379);
        valueExpression "2*nu*internalField(k)/sqr(mag(delta()))";
        gradientExpression "0";
        fractionExpression "1";
        evaluateDuringConstruction 0;
        variables       "";
        timelines       (
);
        lookuptables    (
);
    }
    frontAndBack
    {
        type            empty;
    }
    middle
    {
        type            symmetryPlane;
        value           nonuniform List<scalar> 2(0.7257017 0.7257016);
    }
}


// ************************************************************************* //
