/*--------------------------------*- C++ -*----------------------------------*\
| =========                 |                                                 |
| \\      /  F ield         | foam-extend: Open Source CFD                    |
|  \\    /   O peration     | Version:     4.0                                |
|   \\  /    A nd           | Web:         http://www.foam-extend.org         |
|    \\/     M anipulation  |                                                 |
\*---------------------------------------------------------------------------*/
FoamFile
{
    version     2.0;
    format      ascii;
    class       volScalarField;
    location    "100";
    object      epsilonPlus;
}
// * * * * * * * * * * * * * * * * * * * * * * * * * * * * * * * * * * * * * //

dimensions      [0 4 -4 0 0 0 0];

internalField   nonuniform List<scalar> 
150
(
0.1318021
0.1318021
0.1243672
0.1243672
0.11744
0.11744
0.1110583
0.1110583
0.1052629
0.1052629
0.100098
0.100098
0.09561107
0.09561107
0.09185242
0.09185242
0.08887409
0.08887409
0.08672817
0.08672818
0.08546436
0.08546436
0.08512702
0.08512702
0.08575197
0.08575198
0.08736357
0.08736357
0.08997237
0.08997237
0.09357417
0.09357417
0.09815084
0.09815084
0.1036733
0.1036733
0.1100997
0.1100997
0.1172126
0.1172127
0.124671
0.124671
0.1321526
0.1321526
0.1393488
0.1393488
0.1459752
0.1459752
0.151783
0.151783
0.1565679
0.1565679
0.1601771
0.1601772
0.1625133
0.1625133
0.163534
0.163534
0.1632487
0.1632487
0.1617128
0.1617128
0.1590193
0.1590193
0.1552896
0.1552896
0.1506638
0.1506638
0.1452921
0.1452921
0.1393265
0.1393265
0.1329146
0.1329146
0.1261943
0.1261943
0.1192906
0.1192906
0.1123136
0.1123136
0.1053573
0.1053573
0.09849993
0.09849993
0.09180477
0.09180478
0.08532116
0.08532116
0.07908608
0.07908608
0.07312579
0.07312579
0.06745744
0.06745744
0.06209061
0.06209061
0.05702875
0.05702875
0.0522705
0.0522705
0.04781077
0.04781077
0.04364176
0.04364176
0.03975372
0.03975372
0.03613564
0.03613564
0.03277584
0.03277584
0.02966234
0.02966234
0.02678322
0.02678322
0.02412686
0.02412686
0.02168207
0.02168207
0.01943822
0.01943822
0.01738521
0.01738521
0.01551342
0.01551342
0.01381366
0.01381366
0.01227698
0.01227698
0.01089455
0.01089455
0.009657566
0.009657566
0.008557153
0.008557152
0.007584582
0.007584582
0.006731862
0.006731862
0.005993006
0.005993006
0.005365556
0.005365556
0.004850921
0.004850921
0.004452824
0.004452824
0.00417691
0.00417691
0.004031676
0.004031676
)
;

boundaryField
{
    leftandright
    {
        type            cyclic;
        value           nonuniform List<scalar> 
150
(
0.1318021
0.1243672
0.11744
0.1110583
0.1052629
0.100098
0.09561107
0.09185242
0.08887409
0.08672818
0.08546436
0.08512702
0.08575198
0.08736357
0.08997237
0.09357417
0.09815084
0.1036733
0.1100997
0.1172126
0.124671
0.1321526
0.1393488
0.1459752
0.151783
0.1565679
0.1601771
0.1625133
0.163534
0.1632487
0.1617128
0.1590193
0.1552896
0.1506638
0.1452921
0.1393265
0.1329146
0.1261943
0.1192906
0.1123136
0.1053573
0.09849993
0.09180477
0.08532116
0.07908608
0.07312579
0.06745744
0.06209061
0.05702875
0.0522705
0.04781077
0.04364176
0.03975372
0.03613564
0.03277584
0.02966234
0.02678322
0.02412686
0.02168207
0.01943822
0.01738521
0.01551342
0.01381366
0.01227698
0.01089455
0.009657566
0.008557152
0.007584582
0.006731862
0.005993006
0.005365556
0.004850921
0.004452824
0.00417691
0.004031676
0.1318021
0.1243672
0.11744
0.1110583
0.1052629
0.100098
0.09561107
0.09185242
0.08887409
0.08672818
0.08546436
0.08512702
0.08575198
0.08736357
0.08997237
0.09357417
0.09815084
0.1036733
0.1100997
0.1172126
0.124671
0.1321526
0.1393488
0.1459752
0.151783
0.1565679
0.1601771
0.1625133
0.163534
0.1632487
0.1617128
0.1590193
0.1552896
0.1506638
0.1452921
0.1393265
0.1329146
0.1261943
0.1192906
0.1123136
0.1053573
0.09849993
0.09180477
0.08532116
0.07908608
0.07312579
0.06745744
0.06209061
0.05702875
0.0522705
0.04781077
0.04364176
0.03975372
0.03613564
0.03277584
0.02966234
0.02678322
0.02412686
0.02168207
0.01943822
0.01738521
0.01551342
0.01381366
0.01227698
0.01089455
0.009657566
0.008557152
0.007584582
0.006731862
0.005993006
0.005365556
0.004850921
0.004452824
0.00417691
0.004031676
)
;
    }
    wall
    {
        type            calculated;
        value           nonuniform List<scalar> 2(0.1358544 0.1358544);
    }
    frontAndBack
    {
        type            empty;
    }
    middle
    {
        type            symmetryPlane;
        value           nonuniform List<scalar> 2(0.004031676 0.004031676);
    }
}


// ************************************************************************* //
