/*--------------------------------*- C++ -*----------------------------------*\
| =========                 |                                                 |
| \\      /  F ield         | foam-extend: Open Source CFD                    |
|  \\    /   O peration     | Version:     4.0                                |
|   \\  /    A nd           | Web:         http://www.foam-extend.org         |
|    \\/     M anipulation  |                                                 |
\*---------------------------------------------------------------------------*/
FoamFile
{
    version     2.0;
    format      ascii;
    class       volScalarField;
    location    "100";
    object      epsilonV;
}
// * * * * * * * * * * * * * * * * * * * * * * * * * * * * * * * * * * * * * //

dimensions      [0 2 -3 0 0 0 0];

internalField   nonuniform List<scalar> 
150
(
5.125126e-08
5.125051e-08
2.670945e-06
2.670906e-06
1.778292e-05
1.778267e-05
6.524353e-05
6.524269e-05
0.0001765821
0.0001765802
0.0003962813
0.0003962778
0.0007820969
0.0007820916
0.001403816
0.001403809
0.002339889
0.002339882
0.003671688
0.003671681
0.005475808
0.005475804
0.007815761
0.007815762
0.0107352
0.01073521
0.01425502
0.01425504
0.01837578
0.01837582
0.02308535
0.02308541
0.02836753
0.02836762
0.03414948
0.0341496
0.04238348
0.04238364
0.0532625
0.0532627
0.06536361
0.06536385
0.0787751
0.07877536
0.09354389
0.09354415
0.1097251
0.1097253
0.1273836
0.1273839
0.1465898
0.1465901
0.167411
0.1674113
0.1898998
0.1899001
0.2140826
0.2140829
0.2399465
0.2399468
0.2674281
0.2674285
0.2964049
0.2964052
0.3266896
0.3266898
0.3580291
0.3580294
0.3901086
0.3901089
0.4225595
0.4225599
0.4549707
0.4549711
0.4869033
0.4869038
0.5179046
0.5179048
0.5475228
0.5475233
0.5753211
0.5753216
0.600888
0.6008886
0.6238474
0.623848
0.6438639
0.6438649
0.6606481
0.660649
0.673958
0.6739589
0.6835987
0.6835997
0.6894222
0.6894232
0.6913235
0.6913247
0.689239
0.6892401
0.6831416
0.6831424
0.6730369
0.6730376
0.6589604
0.6589609
0.6409729
0.6409733
0.6191582
0.6191584
0.5936201
0.5936203
0.5644819
0.5644821
0.5318857
0.5318859
0.4959947
0.4959949
0.456997
0.4569971
0.415114
0.4151143
0.3706126
0.3706129
0.3238253
0.3238255
0.2751744
0.2751746
0.225234
0.2252343
0.1747895
0.1747897
0.1252092
0.1252094
0.07895843
0.0789584
0.04145727
0.04145719
0.0177765
0.01777646
0.007502659
0.00750265
0.002994865
0.00299486
0.001590195
0.001590191
0.0002283971
0.0002283979
0.0001341523
0.0001341519
)
;

boundaryField
{
    leftandright
    {
        type            cyclic;
        value           nonuniform List<scalar> 
150
(
5.125089e-08
2.670926e-06
1.77828e-05
6.524311e-05
0.0001765811
0.0003962796
0.0007820942
0.001403812
0.002339885
0.003671685
0.005475806
0.007815761
0.01073521
0.01425503
0.0183758
0.02308538
0.02836757
0.03414954
0.04238356
0.0532626
0.06536373
0.07877523
0.09354402
0.1097252
0.1273837
0.14659
0.1674111
0.1899
0.2140828
0.2399467
0.2674283
0.2964051
0.3266897
0.3580293
0.3901087
0.4225597
0.4549709
0.4869035
0.5179047
0.5475231
0.5753213
0.6008883
0.6238477
0.6438644
0.6606486
0.6739585
0.6835992
0.6894227
0.6913241
0.6892396
0.683142
0.6730373
0.6589606
0.6409731
0.6191583
0.5936202
0.564482
0.5318858
0.4959948
0.4569971
0.4151142
0.3706127
0.3238254
0.2751745
0.2252342
0.1747896
0.1252093
0.07895841
0.04145723
0.01777648
0.007502654
0.002994862
0.001590193
0.0002283975
0.0001341521
5.125089e-08
2.670926e-06
1.77828e-05
6.524311e-05
0.0001765811
0.0003962796
0.0007820942
0.001403812
0.002339885
0.003671685
0.005475806
0.007815761
0.01073521
0.01425503
0.0183758
0.02308538
0.02836757
0.03414954
0.04238356
0.0532626
0.06536373
0.07877523
0.09354402
0.1097252
0.1273837
0.14659
0.1674111
0.1899
0.2140828
0.2399467
0.2674283
0.2964051
0.3266897
0.3580293
0.3901087
0.4225597
0.4549709
0.4869035
0.5179047
0.5475231
0.5753213
0.6008883
0.6238477
0.6438644
0.6606486
0.6739585
0.6835992
0.6894227
0.6913241
0.6892396
0.683142
0.6730373
0.6589606
0.6409731
0.6191583
0.5936202
0.564482
0.5318858
0.4959948
0.4569971
0.4151142
0.3706127
0.3238254
0.2751745
0.2252342
0.1747896
0.1252093
0.07895841
0.04145723
0.01777648
0.007502654
0.002994862
0.001590193
0.0002283975
0.0001341521
)
;
    }
    wall
    {
        type            calculated;
        value           nonuniform List<scalar> 2(2.592259e-10 2.592221e-10);
    }
    frontAndBack
    {
        type            empty;
    }
    middle
    {
        type            symmetryPlane;
        value           nonuniform List<scalar> 2(0.0001341523 0.0001341519);
    }
}


// ************************************************************************* //
