/*--------------------------------*- C++ -*----------------------------------*\
| =========                 |                                                 |
| \\      /  F ield         | foam-extend: Open Source CFD                    |
|  \\    /   O peration     | Version:     4.0                                |
|   \\  /    A nd           | Web:         http://www.foam-extend.org         |
|    \\/     M anipulation  |                                                 |
\*---------------------------------------------------------------------------*/
FoamFile
{
    version     2.0;
    format      ascii;
    class       volScalarField;
    location    "100";
    object      EtauP;
}
// * * * * * * * * * * * * * * * * * * * * * * * * * * * * * * * * * * * * * //

dimensions      [0 2 -4 0 0 0 0];

internalField   nonuniform List<scalar> 
150
(
6.820213e-06
6.820114e-06
0.0001820156
0.0001820129
0.0008518089
0.0008517968
0.002484545
0.002484513
0.005696665
0.005696602
0.01125507
0.01125497
0.02007177
0.02007164
0.03318845
0.03318829
0.05174945
0.05174929
0.07696356
0.07696342
0.1100584
0.1100583
0.1522355
0.1522355
0.2046369
0.204637
0.2683365
0.2683369
0.3443674
0.3443681
0.4337851
0.4337862
0.5377265
0.5377281
0.6562997
0.656302
0.786937
0.7869399
0.9268551
0.9268586
1.076127
1.076131
1.235231
1.235235
1.403358
1.403362
1.579442
1.579446
1.762269
1.762273
1.95049
1.950494
2.142582
2.142586
2.336789
2.336793
2.531073
2.531077
2.723087
2.723091
2.91018
2.910184
3.089443
3.089446
3.257803
3.257805
3.412143
3.412146
3.549456
3.549459
3.666996
3.667
3.762417
3.762421
3.833891
3.833894
3.880174
3.880176
3.900647
3.900651
3.895306
3.895309
3.864718
3.864722
3.809964
3.809968
3.73254
3.732546
3.634284
3.634288
3.517269
3.517274
3.383725
3.383729
3.23596
3.235965
3.076292
3.076297
2.906999
2.907003
2.730271
2.730274
2.548188
2.548191
2.362696
2.362697
2.175597
2.175598
1.988549
1.98855
1.803068
1.803069
1.620534
1.620534
1.442207
1.442207
1.269238
1.269238
1.102685
1.102685
0.9435318
0.9435324
0.7926998
0.7927003
0.6510699
0.6510702
0.5194911
0.5194915
0.3988404
0.3988409
0.2900425
0.2900429
0.1945493
0.1945496
0.1148246
0.1148245
0.05642739
0.05642729
0.02266597
0.02266591
0.008982693
0.008982682
0.003382834
0.003382828
0.001708309
0.001708305
0.0002362256
0.0002362264
0.0001358438
0.0001358434
)
;

boundaryField
{
    leftandright
    {
        type            cyclic;
        value           nonuniform List<scalar> 
150
(
6.820164e-06
0.0001820143
0.0008518028
0.002484529
0.005696634
0.01125502
0.0200717
0.03318837
0.05174937
0.07696349
0.1100584
0.1522355
0.2046369
0.2683367
0.3443677
0.4337857
0.5377273
0.6563009
0.7869384
0.9268568
1.076129
1.235233
1.40336
1.579444
1.762271
1.950492
2.142584
2.336791
2.531075
2.723089
2.910182
3.089445
3.257804
3.412144
3.549457
3.666998
3.762419
3.833893
3.880175
3.900649
3.895307
3.86472
3.809966
3.732543
3.634286
3.517271
3.383727
3.235962
3.076295
2.907001
2.730273
2.548189
2.362696
2.175598
1.98855
1.803068
1.620534
1.442207
1.269238
1.102685
0.9435321
0.7927001
0.65107
0.5194913
0.3988407
0.2900427
0.1945495
0.1148246
0.05642734
0.02266594
0.008982688
0.003382831
0.001708307
0.000236226
0.0001358436
6.820164e-06
0.0001820143
0.0008518028
0.002484529
0.005696634
0.01125502
0.0200717
0.03318837
0.05174937
0.07696349
0.1100584
0.1522355
0.2046369
0.2683367
0.3443677
0.4337857
0.5377273
0.6563009
0.7869384
0.9268568
1.076129
1.235233
1.40336
1.579444
1.762271
1.950492
2.142584
2.336791
2.531075
2.723089
2.910182
3.089445
3.257804
3.412144
3.549457
3.666998
3.762419
3.833893
3.880175
3.900649
3.895307
3.86472
3.809966
3.732543
3.634286
3.517271
3.383727
3.235962
3.076295
2.907001
2.730273
2.548189
2.362696
2.175598
1.98855
1.803068
1.620534
1.442207
1.269238
1.102685
0.9435321
0.7927001
0.65107
0.5194913
0.3988407
0.2900427
0.1945495
0.1148246
0.05642734
0.02266594
0.008982688
0.003382831
0.001708307
0.000236226
0.0001358436
)
;
    }
    wall
    {
        type            calculated;
        value           nonuniform List<scalar> 2(4.193541e-09 4.19348e-09);
    }
    frontAndBack
    {
        type            empty;
    }
    middle
    {
        type            symmetryPlane;
        value           nonuniform List<scalar> 2(0.0001358438 0.0001358434);
    }
}


// ************************************************************************* //
