/*--------------------------------*- C++ -*----------------------------------*\
| =========                 |                                                 |
| \\      /  F ield         | foam-extend: Open Source CFD                    |
|  \\    /   O peration     | Version:     4.0                                |
|   \\  /    A nd           | Web:         http://www.foam-extend.org         |
|    \\/     M anipulation  |                                                 |
\*---------------------------------------------------------------------------*/
FoamFile
{
    version     2.0;
    format      ascii;
    class       volScalarField;
    location    "100";
    object      eVyy;
}
// * * * * * * * * * * * * * * * * * * * * * * * * * * * * * * * * * * * * * //

dimensions      [0 2 -3 0 0 0 0];

internalField   nonuniform List<scalar> 
150
(
1.129746e-12
1.12973e-12
2.711347e-10
2.711307e-10
4.318974e-09
4.318913e-09
2.900369e-08
2.900331e-08
1.242913e-07
1.242899e-07
4.032062e-07
4.032026e-07
1.080335e-06
1.080328e-06
2.514098e-06
2.514086e-06
5.244378e-06
5.244361e-06
1.001437e-05
1.001435e-05
1.77659e-05
1.776589e-05
2.960303e-05
2.960304e-05
4.67293e-05
4.672934e-05
7.037663e-05
7.037673e-05
0.0001017517
0.0001017519
0.0001420222
0.0001420226
0.0001923401
0.0001923407
0.0002534425
0.0002534434
0.0003422088
0.0003422101
0.0004654682
0.00046547
0.000615941
0.0006159432
0.0007983474
0.00079835
0.001017802
0.001017805
0.001280331
0.001280335
0.001593018
0.001593022
0.001964081
0.001964085
0.002402875
0.00240288
0.002919818
0.002919824
0.003526217
0.003526223
0.004233985
0.004233991
0.005055258
0.005055265
0.006001904
0.00600191
0.007084957
0.007084962
0.00831399
0.008313997
0.009696505
0.009696515
0.01123734
0.01123735
0.01293813
0.01293815
0.01479694
0.01479695
0.01680788
0.01680789
0.01896103
0.01896105
0.02124234
0.02124236
0.0236337
0.02363373
0.02611319
0.02611322
0.02865527
0.02865531
0.03123118
0.03123121
0.03380931
0.03380936
0.03635564
0.03635569
0.03883415
0.03883421
0.04120722
0.04120729
0.04343608
0.04343615
0.04548106
0.04548112
0.04730188
0.04730193
0.04885783
0.04885787
0.05010783
0.05010786
0.05101033
0.05101035
0.05152315
0.05152317
0.05160321
0.05160323
0.0512061
0.05120612
0.05028584
0.05028585
0.0487947
0.04879472
0.04668379
0.04668382
0.04390451
0.04390453
0.04041223
0.04041226
0.03617241
0.03617243
0.03117465
0.03117468
0.0254519
0.02545193
0.01915308
0.0191531
0.01265804
0.01265804
0.006939898
0.006939884
0.0030904
0.003090392
0.001346012
0.00134601
0.0005512336
0.0005512327
0.0002985608
0.0002985601
4.348032e-05
4.348047e-05
2.572694e-05
2.572687e-05
)
;

boundaryField
{
    leftandright
    {
        type            cyclic;
        value           nonuniform List<scalar> 
150
(
1.129738e-12
2.711327e-10
4.318943e-09
2.90035e-08
1.242906e-07
4.032044e-07
1.080331e-06
2.514092e-06
5.24437e-06
1.001436e-05
1.77659e-05
2.960303e-05
4.672932e-05
7.037668e-05
0.0001017518
0.0001420224
0.0001923404
0.000253443
0.0003422095
0.0004654691
0.0006159421
0.0007983487
0.001017803
0.001280333
0.00159302
0.001964083
0.002402877
0.002919821
0.00352622
0.004233988
0.005055261
0.006001907
0.007084959
0.008313994
0.00969651
0.01123735
0.01293814
0.01479694
0.01680789
0.01896104
0.02124235
0.02363372
0.02611321
0.02865529
0.03123119
0.03380933
0.03635567
0.03883418
0.04120726
0.04343611
0.04548109
0.0473019
0.04885785
0.05010784
0.05101034
0.05152316
0.05160322
0.05120611
0.05028585
0.04879471
0.0466838
0.04390452
0.04041225
0.03617242
0.03117466
0.02545192
0.01915309
0.01265804
0.006939891
0.003090396
0.001346011
0.0005512332
0.0002985605
4.34804e-05
2.572691e-05
1.129738e-12
2.711327e-10
4.318943e-09
2.90035e-08
1.242906e-07
4.032044e-07
1.080331e-06
2.514092e-06
5.24437e-06
1.001436e-05
1.77659e-05
2.960303e-05
4.672932e-05
7.037668e-05
0.0001017518
0.0001420224
0.0001923404
0.000253443
0.0003422095
0.0004654691
0.0006159421
0.0007983487
0.001017803
0.001280333
0.00159302
0.001964083
0.002402877
0.002919821
0.00352622
0.004233988
0.005055261
0.006001907
0.007084959
0.008313994
0.00969651
0.01123735
0.01293814
0.01479694
0.01680789
0.01896104
0.02124235
0.02363372
0.02611321
0.02865529
0.03123119
0.03380933
0.03635567
0.03883418
0.04120726
0.04343611
0.04548109
0.0473019
0.04885785
0.05010784
0.05101034
0.05152316
0.05160322
0.05120611
0.05028585
0.04879471
0.0466838
0.04390452
0.04041225
0.03617242
0.03117466
0.02545192
0.01915309
0.01265804
0.006939891
0.003090396
0.001346011
0.0005512332
0.0002985605
4.34804e-05
2.572691e-05
)
;
    }
    wall
    {
        type            calculated;
        value           nonuniform List<scalar> 2(1.684969e-10 1.684944e-10);
    }
    frontAndBack
    {
        type            empty;
    }
    middle
    {
        type            symmetryPlane;
        value           nonuniform List<scalar> 2(2.572694e-05 2.572687e-05);
    }
}


// ************************************************************************* //
