/*--------------------------------*- C++ -*----------------------------------*\
| =========                 |                                                 |
| \\      /  F ield         | foam-extend: Open Source CFD                    |
|  \\    /   O peration     | Version:     4.0                                |
|   \\  /    A nd           | Web:         http://www.foam-extend.org         |
|    \\/     M anipulation  |                                                 |
\*---------------------------------------------------------------------------*/
FoamFile
{
    version     2.0;
    format      ascii;
    class       volScalarField;
    location    "100";
    object      f;
}
// * * * * * * * * * * * * * * * * * * * * * * * * * * * * * * * * * * * * * //

dimensions      [0 0 -1 0 0 0 0];

internalField   nonuniform List<scalar> 
150
(
0.01029494
0.01029495
0.03120198
0.03120198
0.05296057
0.05296057
0.07560532
0.07560532
0.09917136
0.09917136
0.1236941
0.1236941
0.1492086
0.1492086
0.1757494
0.1757494
0.2033495
0.2033495
0.2320392
0.2320392
0.2618456
0.2618456
0.2927902
0.2927902
0.3248876
0.3248875
0.3581429
0.3581429
0.392549
0.392549
0.4280833
0.4280833
0.4647032
0.4647032
0.5023419
0.5023419
0.5409023
0.5409023
0.5803105
0.5803105
0.6205129
0.6205129
0.6614369
0.6614369
0.7029923
0.7029923
0.7450729
0.7450729
0.7875584
0.7875584
0.8303164
0.8303164
0.8732044
0.8732044
0.9160726
0.9160726
0.9587656
0.9587656
1.001125
1.001125
1.042993
1.042993
1.084211
1.084211
1.124626
1.124626
1.164088
1.164088
1.202455
1.202455
1.239591
1.239591
1.275368
1.275368
1.309669
1.309669
1.342385
1.342385
1.373416
1.373416
1.402672
1.402672
1.430072
1.430072
1.455548
1.455548
1.479038
1.479038
1.500492
1.500492
1.519867
1.519867
1.537132
1.537132
1.552264
1.552264
1.56525
1.56525
1.576085
1.576085
1.584773
1.584773
1.591329
1.591329
1.595775
1.595775
1.598142
1.598142
1.59847
1.59847
1.596807
1.596807
1.593211
1.593211
1.587748
1.587748
1.580492
1.580492
1.571528
1.571528
1.560949
1.560949
1.548859
1.548859
1.535378
1.535378
1.520637
1.520637
1.50479
1.50479
1.488017
1.488017
1.47053
1.47053
1.452595
1.452595
1.434543
1.434543
1.41681
1.41681
1.399975
1.399975
1.384766
1.384766
1.372021
1.372021
1.362649
1.362649
1.357531
1.357531
)
;

boundaryField
{
    leftandright
    {
        type            cyclic;
        value           nonuniform List<scalar> 
150
(
0.01029495
0.03120198
0.05296057
0.07560532
0.09917136
0.1236941
0.1492086
0.1757494
0.2033495
0.2320392
0.2618456
0.2927902
0.3248876
0.3581429
0.392549
0.4280833
0.4647032
0.5023419
0.5409023
0.5803105
0.6205129
0.6614369
0.7029923
0.7450729
0.7875584
0.8303164
0.8732044
0.9160726
0.9587656
1.001125
1.042993
1.084211
1.124626
1.164088
1.202455
1.239591
1.275368
1.309669
1.342385
1.373416
1.402672
1.430072
1.455548
1.479038
1.500492
1.519867
1.537132
1.552264
1.56525
1.576085
1.584773
1.591329
1.595775
1.598142
1.59847
1.596807
1.593211
1.587748
1.580492
1.571528
1.560949
1.548859
1.535378
1.520637
1.50479
1.488017
1.47053
1.452595
1.434543
1.41681
1.399975
1.384766
1.372021
1.362649
1.357531
0.01029495
0.03120198
0.05296057
0.07560532
0.09917136
0.1236941
0.1492086
0.1757494
0.2033495
0.2320392
0.2618456
0.2927902
0.3248876
0.3581429
0.392549
0.4280833
0.4647032
0.5023419
0.5409023
0.5803105
0.6205129
0.6614369
0.7029923
0.7450729
0.7875584
0.8303164
0.8732044
0.9160726
0.9587656
1.001125
1.042993
1.084211
1.124626
1.164088
1.202455
1.239591
1.275368
1.309669
1.342385
1.373416
1.402672
1.430072
1.455548
1.479038
1.500492
1.519867
1.537132
1.552264
1.56525
1.576085
1.584773
1.591329
1.595775
1.598142
1.59847
1.596807
1.593211
1.587748
1.580492
1.571528
1.560949
1.548859
1.535378
1.520637
1.50479
1.488017
1.47053
1.452595
1.434543
1.41681
1.399975
1.384766
1.372021
1.362649
1.357531
)
;
    }
    wall
    {
        type            fixedValue;
        value           uniform 1e-10;
    }
    frontAndBack
    {
        type            empty;
    }
    middle
    {
        type            symmetryPlane;
        value           nonuniform List<scalar> 2(1.357531 1.357531);
    }
}


// ************************************************************************* //
