/*--------------------------------*- C++ -*----------------------------------*\
| =========                 |                                                 |
| \\      /  F ield         | foam-extend: Open Source CFD                    |
|  \\    /   O peration     | Version:     4.0                                |
|   \\  /    A nd           | Web:         http://www.foam-extend.org         |
|    \\/     M anipulation  |                                                 |
\*---------------------------------------------------------------------------*/
FoamFile
{
    version     2.0;
    format      ascii;
    class       volScalarField;
    location    "100";
    object      fp;
}
// * * * * * * * * * * * * * * * * * * * * * * * * * * * * * * * * * * * * * //

dimensions      [0 0 0 0 0 0 0];

internalField   nonuniform List<scalar> 
150
(
3.322777
3.322754
3.321473
3.321449
3.319315
3.319293
3.316548
3.316529
3.313267
3.31325
3.309436
3.309423
3.304924
3.304914
3.29953
3.299524
3.293026
3.293022
3.285194
3.285191
3.275877
3.275876
3.265027
3.265027
3.252743
3.252745
3.239302
3.239304
3.225146
3.225149
3.210802
3.210806
3.196525
3.196529
3.181022
3.181026
3.161823
3.161827
3.138436
3.138439
3.113134
3.113137
3.088015
3.088017
3.063771
3.063773
3.040638
3.04064
3.018712
3.018713
2.998027
2.998028
2.978549
2.97855
2.960163
2.960165
2.942667
2.942669
2.92578
2.925782
2.909155
2.909156
2.892401
2.892403
2.875118
2.875119
2.85691
2.856912
2.83742
2.837422
2.816342
2.816344
2.793433
2.793434
2.768519
2.76852
2.741493
2.741494
2.712309
2.71231
2.680973
2.680975
2.647532
2.647534
2.612062
2.612064
2.574658
2.57466
2.535421
2.535424
2.494456
2.494458
2.451856
2.451858
2.407705
2.407708
2.362069
2.362072
2.314994
2.314996
2.266501
2.266503
2.216592
2.216594
2.165242
2.165243
2.112401
2.112402
2.057998
2.057998
2.001935
2.001936
1.944095
1.944095
1.884339
1.88434
1.822513
1.822513
1.758445
1.758445
1.691958
1.691959
1.622874
1.622875
1.551026
1.551026
1.476275
1.476275
1.398578
1.398579
1.318093
1.318093
1.235824
1.235824
1.154944
1.154944
1.084972
1.084972
1.037764
1.037764
1.015983
1.015983
1.006367
1.006367
1.003252
1.003252
1.000524
1.000524
1.000275
1.000275
)
;

boundaryField
{
    leftandright
    {
        type            cyclic;
        value           nonuniform List<scalar> 
150
(
3.322765
3.321461
3.319304
3.316539
3.313258
3.309429
3.304919
3.299527
3.293024
3.285192
3.275876
3.265027
3.252744
3.239303
3.225147
3.210804
3.196527
3.181024
3.161825
3.138438
3.113135
3.088016
3.063772
3.040639
3.018712
2.998027
2.97855
2.960164
2.942668
2.925781
2.909155
2.892402
2.875118
2.856911
2.837421
2.816343
2.793434
2.768519
2.741493
2.712309
2.680974
2.647533
2.612063
2.574659
2.535422
2.494457
2.451857
2.407707
2.362071
2.314995
2.266502
2.216593
2.165242
2.112401
2.057998
2.001935
1.944095
1.88434
1.822513
1.758445
1.691959
1.622874
1.551026
1.476275
1.398578
1.318093
1.235824
1.154944
1.084972
1.037764
1.015983
1.006367
1.003252
1.000524
1.000275
3.322765
3.321461
3.319304
3.316539
3.313258
3.309429
3.304919
3.299527
3.293024
3.285192
3.275876
3.265027
3.252744
3.239303
3.225147
3.210804
3.196527
3.181024
3.161825
3.138438
3.113135
3.088016
3.063772
3.040639
3.018712
2.998027
2.97855
2.960164
2.942668
2.925781
2.909155
2.892402
2.875118
2.856911
2.837421
2.816343
2.793434
2.768519
2.741493
2.712309
2.680974
2.647533
2.612063
2.574659
2.535422
2.494457
2.451857
2.407707
2.362071
2.314995
2.266502
2.216593
2.165242
2.112401
2.057998
2.001935
1.944095
1.88434
1.822513
1.758445
1.691959
1.622874
1.551026
1.476275
1.398578
1.318093
1.235824
1.154944
1.084972
1.037764
1.015983
1.006367
1.003252
1.000524
1.000275
)
;
    }
    wall
    {
        type            calculated;
        value           nonuniform List<scalar> 2(3.322777 3.322754);
    }
    frontAndBack
    {
        type            empty;
    }
    middle
    {
        type            symmetryPlane;
        value           nonuniform List<scalar> 2(1.000275 1.000275);
    }
}


// ************************************************************************* //
