/*--------------------------------*- C++ -*----------------------------------*\
| =========                 |                                                 |
| \\      /  F ield         | foam-extend: Open Source CFD                    |
|  \\    /   O peration     | Version:     4.0                                |
|   \\  /    A nd           | Web:         http://www.foam-extend.org         |
|    \\/     M anipulation  |                                                 |
\*---------------------------------------------------------------------------*/
FoamFile
{
    version     2.0;
    format      ascii;
    class       volScalarField;
    location    "100";
    object      k;
}
// * * * * * * * * * * * * * * * * * * * * * * * * * * * * * * * * * * * * * //

dimensions      [0 2 -2 0 0 0 0];

internalField   nonuniform List<scalar> 
150
(
0.0009480699
0.0009480699
0.01043901
0.01043901
0.02828141
0.02828141
0.05523806
0.05523807
0.09212665
0.09212665
0.1398188
0.1398188
0.1992334
0.1992334
0.271322
0.271322
0.3570442
0.3570442
0.4573321
0.4573321
0.5730447
0.5730447
0.7049159
0.7049159
0.8535034
0.8535034
1.019145
1.019145
1.201933
1.201933
1.40171
1.40171
1.61809
1.61809
1.850506
1.850506
2.097664
2.097664
2.356151
2.356151
2.621454
2.621454
2.88921
2.88921
3.15486
3.15486
3.413842
3.413842
3.661783
3.661783
3.894668
3.894668
4.108985
4.108985
4.301837
4.301837
4.471012
4.471012
4.615003
4.615004
4.733005
4.733005
4.824859
4.824859
4.890987
4.890987
4.932299
4.932299
4.950096
4.950096
4.945972
4.945972
4.921717
4.921717
4.879236
4.879236
4.820471
4.820471
4.747346
4.747346
4.661719
4.661719
4.565345
4.565345
4.459858
4.459858
4.346754
4.346754
4.227387
4.227387
4.102967
4.102967
3.97457
3.97457
3.843144
3.843144
3.709519
3.709519
3.574422
3.574422
3.43849
3.43849
3.302281
3.302281
3.166296
3.166296
3.030982
3.030982
2.896754
2.896754
2.764006
2.764006
2.63312
2.63312
2.504479
2.504479
2.378473
2.378473
2.25551
2.25551
2.136013
2.136013
2.020424
2.020424
1.909192
1.909192
1.802771
1.802771
1.701597
1.701597
1.606075
1.606075
1.516568
1.516568
1.433396
1.433396
1.356888
1.356888
1.287515
1.287515
1.226072
1.226072
1.173754
1.173753
1.131985
1.131985
1.102322
1.102322
1.086455
1.086455
)
;

boundaryField
{
    leftandright
    {
        type            cyclic;
        value           nonuniform List<scalar> 
150
(
0.0009480699
0.01043901
0.02828141
0.05523806
0.09212665
0.1398188
0.1992334
0.271322
0.3570442
0.4573321
0.5730447
0.7049159
0.8535034
1.019145
1.201933
1.40171
1.61809
1.850506
2.097664
2.356151
2.621454
2.88921
3.15486
3.413842
3.661783
3.894668
4.108985
4.301837
4.471012
4.615004
4.733005
4.824859
4.890987
4.932299
4.950096
4.945972
4.921717
4.879236
4.820471
4.747346
4.661719
4.565345
4.459858
4.346754
4.227387
4.102967
3.97457
3.843144
3.709519
3.574422
3.43849
3.302281
3.166296
3.030982
2.896754
2.764006
2.63312
2.504479
2.378473
2.25551
2.136013
2.020424
1.909192
1.802771
1.701597
1.606075
1.516568
1.433396
1.356888
1.287515
1.226072
1.173753
1.131985
1.102322
1.086455
0.0009480699
0.01043901
0.02828141
0.05523806
0.09212665
0.1398188
0.1992334
0.271322
0.3570442
0.4573321
0.5730447
0.7049159
0.8535034
1.019145
1.201933
1.40171
1.61809
1.850506
2.097664
2.356151
2.621454
2.88921
3.15486
3.413842
3.661783
3.894668
4.108985
4.301837
4.471012
4.615004
4.733005
4.824859
4.890987
4.932299
4.950096
4.945972
4.921717
4.879236
4.820471
4.747346
4.661719
4.565345
4.459858
4.346754
4.227387
4.102967
3.97457
3.843144
3.709519
3.574422
3.43849
3.302281
3.166296
3.030982
2.896754
2.764006
2.63312
2.504479
2.378473
2.25551
2.136013
2.020424
1.909192
1.802771
1.701597
1.606075
1.516568
1.433396
1.356888
1.287515
1.226072
1.173753
1.131985
1.102322
1.086455
)
;
    }
    wall
    {
        type            fixedValue;
        value           uniform 1e-10;
    }
    frontAndBack
    {
        type            empty;
    }
    middle
    {
        type            symmetryPlane;
        value           nonuniform List<scalar> 2(1.086455 1.086455);
    }
}


// ************************************************************************* //
