/*--------------------------------*- C++ -*----------------------------------*\
| =========                 |                                                 |
| \\      /  F ield         | foam-extend: Open Source CFD                    |
|  \\    /   O peration     | Version:     4.0                                |
|   \\  /    A nd           | Web:         http://www.foam-extend.org         |
|    \\/     M anipulation  |                                                 |
\*---------------------------------------------------------------------------*/
FoamFile
{
    version     2.0;
    format      ascii;
    class       volSymmTensorField;
    location    "100";
    object      N;
}
// * * * * * * * * * * * * * * * * * * * * * * * * * * * * * * * * * * * * * //

dimensions      [0 2 -2 0 0 0 0];

internalField   nonuniform List<symmTensor> 
150
(
(0.001861114 0 0 3.215163e-08 0 3.499346e-05)
(0.001861114 0 0 3.215163e-08 0 3.499368e-05)
(0.02049095 0 0 1.630293e-06 0 0.000385436)
(0.02049095 0 0 1.630293e-06 0 0.0003854383)
(0.05550745 0 0 1.056732e-05 0 0.001044807)
(0.05550744 0 0 1.056732e-05 0 0.001044813)
(0.1083962 0 0 3.777814e-05 0 0.002042135)
(0.1083962 0 0 3.777814e-05 0 0.002042145)
(0.1805139 0 0 9.976213e-05 0 0.003639624)
(0.1805139 0 0 9.976214e-05 0 0.003639624)
(0.2728039 0 0 0.0002188646 0 0.006614841)
(0.2728039 0 0 0.0002188646 0 0.006614841)
(0.3871036 2.651941e-19 0 0.0004233956 0 0.01093981)
(0.3871036 -2.651942e-19 0 0.0004233957 0 0.01093981)
(0.5249971 0 0 0.0007475556 0 0.01689934)
(0.5249971 0 0 0.0007475557 0 0.01689934)
(0.6880707 0 0 0.001231139 0 0.02478664)
(0.6880707 -1.075275e-18 0 0.001231139 0 0.02478664)
(0.8778469 0 0 0.001919004 0 0.03489835)
(0.8778469 0 0 0.001919004 0 0.03489835)
(1.095701 0 0 0.002860316 0 0.04752833)
(1.095701 0 0 0.002860316 0 0.04752833)
(1.342764 -4.626751e-18 0 0.004107605 0 0.06296039)
(1.342764 4.626751e-18 0 0.004107605 0 0.0629604)
(1.61983 0 0 0.005715717 0 0.08146061)
(1.61983 0 0 0.005715717 0 0.08146062)
(1.927279 6.797466e-18 0 0.007740753 0 0.1032701)
(1.927279 -6.797467e-18 0 0.007740754 0 0.1032701)
(2.265028 0 0 0.01023912 0 0.1285994)
(2.265028 0 0 0.01023912 0 0.1285994)
(2.632529 -9.297212e-18 0 0.01326675 0 0.157625)
(2.632529 0 0 0.01326675 0 0.157625)
(3.028813 0 0 0.01687864 0 0.1904886)
(3.028814 0 0 0.01687864 0 0.1904886)
(3.452583 2.403651e-17 0 0.02112868 0 0.2273004)
(3.452583 0 0 0.02112868 0 0.2273005)
(3.901232 0 0 0.02605656 0 0.2680396)
(3.901232 0 0 0.02605656 0 0.2680396)
(4.368206 -5.924828e-17 0 0.03167801 0 0.3124168)
(4.368206 2.962414e-17 0 0.03167802 0 0.3124168)
(4.844876 0 0 0.03800422 0 0.3600282)
(4.844876 0 0 0.03800422 0 0.3600282)
(5.322914 6.980023e-17 0 0.04504728 0 0.410459)
(5.322915 0 0 0.04504729 0 0.410459)
(5.793698 7.458203e-17 0 0.05280979 0 0.4632115)
(5.793698 0 0 0.05280979 0 0.4632116)
(6.248681 0 0 0.06128391 0 0.517719)
(6.248681 0 0 0.06128392 0 0.517719)
(6.679752 -8.27214e-17 0 0.07045088 0 0.5733627)
(6.679753 0 0 0.07045089 0 0.5733627)
(7.079562 -8.594405e-17 0 0.08028093 0 0.6294919)
(7.079562 0 0 0.08028093 0 0.6294919)
(7.44179 -1.770777e-16 0 0.09073363 0 0.6854456)
(7.44179 0 0 0.09073364 0 0.6854457)
(7.761342 0 0 0.1017588 0 0.7405739)
(7.761342 0 0 0.1017588 0 0.7405739)
(8.034469 0 0 0.1132974 0 0.7942574)
(8.034469 0 0 0.1132974 0 0.7942574)
(8.258799 0 0 0.1252834 0 0.845925)
(8.258799 0 0 0.1252834 0 0.8459251)
(8.433298 1.847555e-16 0 0.1376448 0 0.8950671)
(8.433298 -1.847555e-16 0 0.1376448 0 0.8950672)
(8.558167 1.835495e-16 0 0.1503055 0 0.9412451)
(8.558167 0 0 0.1503055 0 0.9412451)
(8.63469 -5.437222e-16 0 0.1631868 0 0.9840966)
(8.63469 0 0 0.1631868 0 0.9840966)
(8.665052 0 0 0.1762086 0 1.023337)
(8.665052 0 0 0.1762086 0 1.023337)
(8.652144 3.474916e-16 0 0.189291 0 1.058758)
(8.652144 0 0 0.189291 0 1.058758)
(8.599368 0 0 0.202355 0 1.090221)
(8.599368 0 0 0.202355 0 1.090221)
(8.510457 6.52812e-16 0 0.2153235 0 1.117654)
(8.510457 -3.26406e-16 0 0.2153235 0 1.117654)
(8.389308 0 0 0.2281221 0 1.141041)
(8.389308 0 0 0.2281221 0 1.141041)
(8.239847 0 0 0.2406796 0 1.160415)
(8.239847 0 0 0.2406796 0 1.160415)
(8.065914 0 0 0.2529282 0 1.175849)
(8.065914 0 0 0.2529282 0 1.175849)
(7.871184 0 0 0.2648041 0 1.18745)
(7.871184 0 0 0.2648041 0 1.18745)
(7.659096 0 0 0.2762476 0 1.195347)
(7.659096 0 0 0.2762476 0 1.195347)
(7.432825 0 0 0.2872032 0 1.199689)
(7.432825 0 0 0.2872032 0 1.199689)
(7.19525 -9.217286e-16 0 0.29762 0 1.200639)
(7.19525 0 0 0.29762 0 1.200639)
(6.948955 -4.325766e-16 0 0.3074516 0 1.198366)
(6.948955 0 0 0.3074516 0 1.198366)
(6.696231 0 0 0.3166563 0 1.193047)
(6.696231 0 0 0.3166563 0 1.193047)
(6.439086 0 0 0.3251976 0 1.184857)
(6.439086 0 0 0.3251976 0 1.184857)
(6.17927 0 0 0.3330442 0 1.173974)
(6.17927 0 0 0.3330442 0 1.173974)
(5.918294 6.526594e-16 0 0.3401702 0 1.160574)
(5.918294 0 0 0.3401702 0 1.160574)
(5.657458 6.041735e-16 0 0.3465559 0 1.14483)
(5.657458 -6.041735e-16 0 0.3465559 0 1.14483)
(5.397875 0 0 0.3521877 0 1.126916)
(5.397876 0 0 0.3521877 0 1.126916)
(5.140501 0 0 0.3570592 0 1.107003)
(5.140501 0 0 0.3570592 0 1.107003)
(4.886158 0 0 0.3611711 0 1.085262)
(4.886158 0 0 0.3611711 0 1.085262)
(4.635564 0 0 0.3645322 0 1.061867)
(4.635564 0 0 0.3645322 0 1.061867)
(4.389355 0 0 0.3671596 0 1.036994)
(4.389356 0 0 0.3671595 0 1.036994)
(4.148112 -7.202833e-16 0 0.3690792 0 1.010821)
(4.148112 7.202833e-16 0 0.3690792 0 1.010821)
(3.912378 0 0 0.3703259 0 0.9835363)
(3.912378 0 0 0.3703258 0 0.9835363)
(3.682682 0 0 0.3709432 0 0.9553319)
(3.682682 0 0 0.3709432 0 0.9553319)
(3.459554 -5.368108e-16 0 0.3709826 0 0.9264093)
(3.459554 5.368108e-16 0 0.3709826 0 0.9264093)
(3.24354 0 0 0.3705022 0 0.896978)
(3.24354 0 0 0.3705021 0 0.896978)
(3.035209 0 0 0.3695637 0 0.8672541)
(3.035209 0 0 0.3695637 0 0.8672541)
(2.83516 0 0 0.368229 0 0.8374581)
(2.83516 0 0 0.368229 0 0.8374581)
(2.64402 -1.397485e-15 0 0.3665544 0 0.8078103)
(2.64402 0 0 0.3665544 0 0.8078103)
(2.462435 0 0 0.3645831 0 0.7785243)
(2.462435 -6.236139e-16 0 0.3645831 0 0.7785243)
(2.291059 0 0 0.3623354 0 0.7497985)
(2.291059 0 0 0.3623354 0 0.7497985)
(2.130547 0 0 0.3597968 0 0.7218063)
(2.130547 0 0 0.3597968 0 0.7218063)
(1.981546 0 0 0.3569036 0 0.6946855)
(1.981546 -8.763855e-16 0 0.3569035 0 0.6946855)
(1.844734 0 0 0.3535256 0 0.6685317)
(1.844734 0 0 0.3535256 0 0.6685317)
(1.720924 0 0 0.3494484 0 0.6434038)
(1.720924 0 0 0.3494484 0 0.6434038)
(1.611319 0 0 0.3443557 0 0.6193551)
(1.611319 0 0 0.3443557 0 0.6193551)
(1.516865 0 0 0.3384045 0 0.596874)
(1.516865 0 0 0.3384045 0 0.596874)
(1.438177 0 0 0.3323702 0 0.57696)
(1.438177 0 0 0.3323702 0 0.57696)
(1.376393 0 0 0.3269716 0 0.5606061)
(1.376393 0 0 0.3269716 0 0.5606061)
(1.333029 0 0 0.3228474 0 0.5487671)
(1.333029 0 0 0.3228474 0 0.5487671)
(1.310004 -7.724767e-16 0 0.3205444 0 0.5423602)
(1.310004 0 0 0.3205444 0 0.5423602)
)
;

boundaryField
{
    leftandright
    {
        type            cyclic;
        value           nonuniform List<symmTensor> 
150
(
(0.001861114 0 0 3.215163e-08 0 3.499357e-05)
(0.02049095 0 0 1.630293e-06 0 0.0003854371)
(0.05550745 0 0 1.056732e-05 0 0.00104481)
(0.1083962 0 0 3.777814e-05 0 0.00204214)
(0.1805139 0 0 9.976214e-05 0 0.003639624)
(0.2728039 0 0 0.0002188646 0 0.006614841)
(0.3871036 -1.458279e-34 0 0.0004233957 0 0.01093981)
(0.5249971 0 0 0.0007475557 0 0.01689934)
(0.6880707 -5.376377e-19 0 0.001231139 0 0.02478664)
(0.8778469 0 0 0.001919004 0 0.03489835)
(1.095701 0 0 0.002860316 0 0.04752833)
(1.342764 -3.627083e-34 0 0.004107605 0 0.0629604)
(1.61983 0 0 0.005715717 0 0.08146061)
(1.927279 1.766236e-33 0 0.007740754 0 0.1032701)
(2.265028 0 0 0.01023912 0 0.1285994)
(2.632529 -4.648606e-18 0 0.01326675 0 0.157625)
(3.028814 0 0 0.01687864 0 0.1904886)
(3.452583 1.201826e-17 0 0.02112868 0 0.2273004)
(3.901232 0 0 0.02605656 0 0.2680396)
(4.368206 -1.481207e-17 0 0.03167802 0 0.3124168)
(4.844876 0 0 0.03800422 0 0.3600282)
(5.322915 3.490012e-17 0 0.04504728 0 0.410459)
(5.793698 3.729101e-17 0 0.05280979 0 0.4632116)
(6.248681 0 0 0.06128391 0 0.517719)
(6.679753 -4.13607e-17 0 0.07045089 0 0.5733627)
(7.079562 -4.297202e-17 0 0.08028093 0 0.6294919)
(7.44179 -8.853885e-17 0 0.09073363 0 0.6854457)
(7.761342 0 0 0.1017588 0 0.7405739)
(8.034469 0 0 0.1132974 0 0.7942574)
(8.258799 0 0 0.1252834 0 0.845925)
(8.433298 0 0 0.1376448 0 0.8950672)
(8.558167 9.177475e-17 0 0.1503055 0 0.9412451)
(8.63469 -2.718611e-16 0 0.1631868 0 0.9840966)
(8.665052 0 0 0.1762086 0 1.023337)
(8.652144 1.737458e-16 0 0.189291 0 1.058758)
(8.599368 0 0 0.202355 0 1.090221)
(8.510457 1.63203e-16 0 0.2153235 0 1.117654)
(8.389308 0 0 0.2281221 0 1.141041)
(8.239847 0 0 0.2406796 0 1.160415)
(8.065914 0 0 0.2529282 0 1.175849)
(7.871184 0 0 0.2648041 0 1.18745)
(7.659096 0 0 0.2762476 0 1.195347)
(7.432825 0 0 0.2872032 0 1.199689)
(7.19525 -4.608643e-16 0 0.29762 0 1.200639)
(6.948955 -2.162883e-16 0 0.3074516 0 1.198366)
(6.696231 0 0 0.3166563 0 1.193047)
(6.439086 0 0 0.3251976 0 1.184857)
(6.17927 0 0 0.3330442 0 1.173974)
(5.918294 3.263297e-16 0 0.3401702 0 1.160574)
(5.657458 6.690853e-31 0 0.3465559 0 1.14483)
(5.397875 0 0 0.3521877 0 1.126916)
(5.140501 0 0 0.3570592 0 1.107003)
(4.886158 0 0 0.3611711 0 1.085262)
(4.635564 0 0 0.3645322 0 1.061867)
(4.389356 0 0 0.3671596 0 1.036994)
(4.148112 -6.328066e-32 0 0.3690792 0 1.010821)
(3.912378 0 0 0.3703259 0 0.9835363)
(3.682682 0 0 0.3709432 0 0.9553319)
(3.459554 -1.095386e-31 0 0.3709826 0 0.9264093)
(3.24354 0 0 0.3705021 0 0.896978)
(3.035209 0 0 0.3695637 0 0.8672541)
(2.83516 0 0 0.368229 0 0.8374581)
(2.64402 -6.987424e-16 0 0.3665544 0 0.8078103)
(2.462435 -3.118069e-16 0 0.3645831 0 0.7785243)
(2.291059 0 0 0.3623354 0 0.7497985)
(2.130547 0 0 0.3597968 0 0.7218063)
(1.981546 -4.381928e-16 0 0.3569035 0 0.6946855)
(1.844734 0 0 0.3535256 0 0.6685317)
(1.720924 0 0 0.3494484 0 0.6434038)
(1.611319 0 0 0.3443557 0 0.6193551)
(1.516865 0 0 0.3384045 0 0.596874)
(1.438177 0 0 0.3323702 0 0.57696)
(1.376393 0 0 0.3269716 0 0.5606061)
(1.333029 0 0 0.3228474 0 0.5487671)
(1.310004 -3.862384e-16 0 0.3205444 0 0.5423602)
(0.001861114 0 0 3.215163e-08 0 3.499357e-05)
(0.02049095 0 0 1.630293e-06 0 0.0003854371)
(0.05550745 0 0 1.056732e-05 0 0.00104481)
(0.1083962 0 0 3.777814e-05 0 0.00204214)
(0.1805139 0 0 9.976214e-05 0 0.003639624)
(0.2728039 0 0 0.0002188646 0 0.006614841)
(0.3871036 -1.62031e-34 0 0.0004233957 0 0.01093981)
(0.5249971 0 0 0.0007475557 0 0.01689934)
(0.6880707 -5.376377e-19 0 0.001231139 0 0.02478664)
(0.8778469 0 0 0.001919004 0 0.03489835)
(1.095701 0 0 0.002860316 0 0.04752833)
(1.342764 -3.627083e-34 0 0.004107605 0 0.0629604)
(1.61983 0 0 0.005715717 0 0.08146061)
(1.927279 1.766236e-33 0 0.007740754 0 0.1032701)
(2.265028 0 0 0.01023912 0 0.1285994)
(2.632529 -4.648606e-18 0 0.01326675 0 0.157625)
(3.028814 0 0 0.01687864 0 0.1904886)
(3.452583 1.201826e-17 0 0.02112868 0 0.2273004)
(3.901232 0 0 0.02605656 0 0.2680396)
(4.368206 -1.481207e-17 0 0.03167802 0 0.3124168)
(4.844876 0 0 0.03800422 0 0.3600282)
(5.322915 3.490012e-17 0 0.04504728 0 0.410459)
(5.793698 3.729101e-17 0 0.05280979 0 0.4632116)
(6.248681 0 0 0.06128391 0 0.517719)
(6.679753 -4.13607e-17 0 0.07045089 0 0.5733627)
(7.079562 -4.297202e-17 0 0.08028093 0 0.6294919)
(7.44179 -8.853885e-17 0 0.09073363 0 0.6854457)
(7.761342 0 0 0.1017588 0 0.7405739)
(8.034469 0 0 0.1132974 0 0.7942574)
(8.258799 0 0 0.1252834 0 0.845925)
(8.433298 0 0 0.1376448 0 0.8950672)
(8.558167 9.177475e-17 0 0.1503055 0 0.9412451)
(8.63469 -2.718611e-16 0 0.1631868 0 0.9840966)
(8.665052 0 0 0.1762086 0 1.023337)
(8.652144 1.737458e-16 0 0.189291 0 1.058758)
(8.599368 0 0 0.202355 0 1.090221)
(8.510457 1.63203e-16 0 0.2153235 0 1.117654)
(8.389308 0 0 0.2281221 0 1.141041)
(8.239847 0 0 0.2406796 0 1.160415)
(8.065914 0 0 0.2529282 0 1.175849)
(7.871184 0 0 0.2648041 0 1.18745)
(7.659096 0 0 0.2762476 0 1.195347)
(7.432825 0 0 0.2872032 0 1.199689)
(7.19525 -4.608643e-16 0 0.29762 0 1.200639)
(6.948955 -2.162883e-16 0 0.3074516 0 1.198366)
(6.696231 0 0 0.3166563 0 1.193047)
(6.439086 0 0 0.3251976 0 1.184857)
(6.17927 0 0 0.3330442 0 1.173974)
(5.918294 3.263297e-16 0 0.3401702 0 1.160574)
(5.657458 6.690853e-31 0 0.3465559 0 1.14483)
(5.397875 0 0 0.3521877 0 1.126916)
(5.140501 0 0 0.3570592 0 1.107003)
(4.886158 0 0 0.3611711 0 1.085262)
(4.635564 0 0 0.3645322 0 1.061867)
(4.389356 0 0 0.3671596 0 1.036994)
(4.148112 -6.328066e-32 0 0.3690792 0 1.010821)
(3.912378 0 0 0.3703259 0 0.9835363)
(3.682682 0 0 0.3709432 0 0.9553319)
(3.459554 -1.095386e-31 0 0.3709826 0 0.9264093)
(3.24354 0 0 0.3705021 0 0.896978)
(3.035209 0 0 0.3695637 0 0.8672541)
(2.83516 0 0 0.368229 0 0.8374581)
(2.64402 -6.987424e-16 0 0.3665544 0 0.8078103)
(2.462435 -3.118069e-16 0 0.3645831 0 0.7785243)
(2.291059 0 0 0.3623354 0 0.7497985)
(2.130547 0 0 0.3597968 0 0.7218063)
(1.981546 -4.381928e-16 0 0.3569035 0 0.6946855)
(1.844734 0 0 0.3535256 0 0.6685317)
(1.720924 0 0 0.3494484 0 0.6434038)
(1.611319 0 0 0.3443557 0 0.6193551)
(1.516865 0 0 0.3384045 0 0.596874)
(1.438177 0 0 0.3323702 0 0.57696)
(1.376393 0 0 0.3269716 0 0.5606061)
(1.333029 0 0 0.3228474 0 0.5487671)
(1.310004 -3.862384e-16 0 0.3205444 0 0.5423602)
)
;
    }
    wall
    {
        type            calculated;
        value           uniform (3.333333e-11 0 0 1e-10 0 6.666667e-11);
    }
    frontAndBack
    {
        type            empty;
    }
    middle
    {
        type            symmetryPlane;
        value           nonuniform List<symmTensor> 2((1.310004 0 0 0.5423602 0 0.5423602) (1.310004 0 0 0.5423602 0 0.5423602));
    }
}


// ************************************************************************* //
