/*--------------------------------*- C++ -*----------------------------------*\
| =========                 |                                                 |
| \\      /  F ield         | foam-extend: Open Source CFD                    |
|  \\    /   O peration     | Version:     4.0                                |
|   \\  /    A nd           | Web:         http://www.foam-extend.org         |
|    \\/     M anipulation  |                                                 |
\*---------------------------------------------------------------------------*/
FoamFile
{
    version     2.0;
    format      ascii;
    class       volSymmTensorField;
    location    "100";
    object      NLT;
}
// * * * * * * * * * * * * * * * * * * * * * * * * * * * * * * * * * * * * * //

dimensions      [0 0 -1 0 0 0 0];

internalField   nonuniform List<symmTensor> 
150
(
(3.084777e-05 0 0 6.799856e-10 0 0)
(3.084754e-05 0 0 6.799806e-10 0 0)
(0.001608126 0 0 1.63245e-07 0 0)
(0.001608114 0 0 1.632438e-07 0 0)
(0.01071221 0 0 2.601695e-06 0 0)
(0.01071213 0 0 2.601675e-06 0 0)
(0.03932675 0 0 1.74825e-05 0 0)
(0.03932647 0 0 1.748238e-05 0 0)
(0.106516 0 0 7.497362e-05 0 0)
(0.1065153 0 0 7.497318e-05 0 0)
(0.2392423 0 0 0.0002434228 0 0)
(0.2392411 0 0 0.0002434216 0 0)
(0.472639 -1.646355e-20 0 0.0006528708 0 0)
(0.4726373 1.646349e-20 0 0.0006528683 0 0)
(0.8493973 0 0 0.001521188 0 0)
(0.849395 0 0 0.001521184 0 0)
(1.41794 0 0 0.003178017 0 0)
(1.417937 1.450718e-19 0 0.003178012 0 0)
(2.229215 0 0 0.006080082 0 0)
(2.229212 0 0 0.006080075 0 0)
(3.332299 0 0 0.01081142 0 0)
(3.332297 0 0 0.01081141 0 0)
(4.769498 1.42019e-18 0 0.01806498 0 0)
(4.769498 -1.42019e-18 0 0.01806498 0 0)
(6.572099 0 0 0.0286077 0 0)
(6.572101 0 0 0.02860771 0 0)
(8.75805 -3.07665e-18 0 0.04323824 0 0)
(8.758056 3.076652e-18 0 0.04323827 0 0)
(11.33257 0 0 0.06275144 0 0)
(11.33258 0 0 0.06275152 0 0)
(14.29187 5.662654e-18 0 0.08792427 0 0)
(14.2919 0 0 0.08792442 0 0)
(17.62945 0 0 0.1195327 0 0)
(17.62948 0 0 0.1195329 0 0)
(21.31258 -1.844054e-17 0 0.1581726 0 0)
(21.31263 0 0 0.158173 0 0)
(26.59478 0 0 0.2147291 0 0)
(26.59485 0 0 0.2147296 0 0)
(33.64801 6.205845e-17 0 0.2940543 0 0)
(33.64809 -3.102931e-17 0 0.2940551 0 0)
(41.60014 0 0 0.3920105 0 0)
(41.60025 0 0 0.3920115 0 0)
(50.50801 -9.777717e-17 0 0.511874 0 0)
(50.50813 0 0 0.5118752 0 0)
(60.40726 -1.194433e-16 0 0.6572594 0 0)
(60.40739 0 0 0.6572609 0 0)
(71.33994 0 0 0.8324327 0 0)
(71.34008 0 0 0.8324344 0 0)
(83.35356 1.714579e-16 0 1.042393 0 0)
(83.35371 0 0 1.042395 0 0)
(96.49792 2.023252e-16 0 1.292925 0 0)
(96.49807 0 0 1.292927 0 0)
(110.8204 4.736135e-16 0 1.590622 0 0)
(110.8206 0 0 1.590624 0 0)
(126.3607 0 0 1.942868 0 0)
(126.3608 0 0 1.94287 0 0)
(143.1446 0 0 2.357775 0 0)
(143.1447 0 0 2.357778 0 0)
(161.1781 0 0 2.844073 0 0)
(161.1782 0 0 2.844075 0 0)
(180.4418 -8.320177e-16 0 3.410934 0 0)
(180.4419 8.320183e-16 0 3.410936 0 0)
(200.8864 -9.439823e-16 0 4.067748 0 0)
(200.8865 0 0 4.06775 0 0)
(222.4291 3.19503e-15 0 4.823845 0 0)
(222.4291 0 0 4.823846 0 0)
(244.9525 0 0 5.688175 0 0)
(244.9526 0 0 5.688177 0 0)
(268.305 -2.665324e-15 0 6.668966 0 0)
(268.3051 0 0 6.668969 0 0)
(292.3033 0 0 7.773369 0 0)
(292.3034 0 0 7.773373 0 0)
(316.7358 -6.516401e-15 0 9.007106 0 0)
(316.7359 3.258202e-15 0 9.00711 0 0)
(341.3685 0 0 10.37415 0 0)
(341.3687 0 0 10.37415 0 0)
(365.9501 0 0 11.87641 0 0)
(365.9502 0 0 11.87641 0 0)
(390.2182 0 0 13.51348 0 0)
(390.2184 0 0 13.51349 0 0)
(413.9055 0 0 15.28246 0 0)
(413.9057 0 0 15.28247 0 0)
(436.7451 0 0 17.17775 0 0)
(436.7453 0 0 17.17776 0 0)
(458.4753 0 0 19.191 0 0)
(458.4755 0 0 19.191 0 0)
(478.8437 2.175256e-14 0 21.31102 0 0)
(478.844 0 0 21.31103 0 0)
(497.6108 1.14218e-14 0 23.52382 0 0)
(497.6109 0 0 23.52383 0 0)
(514.5519 0 0 25.81265 0 0)
(514.5521 0 0 25.81266 0 0)
(529.459 0 0 28.15807 0 0)
(529.4593 0 0 28.15808 0 0)
(542.1415 0 0 30.53805 0 0)
(542.1418 0 0 30.53806 0 0)
(552.4259 -2.61954e-14 0 32.92805 0 0)
(552.4262 0 0 32.92807 0 0)
(560.1551 -2.671768e-14 0 35.30117 0 0)
(560.1555 2.671769e-14 0 35.30119 0 0)
(565.1877 0 0 37.62812 0 0)
(565.1879 0 0 37.62814 0 0)
(567.3945 0 0 39.87719 0 0)
(567.3946 0 0 39.87721 0 0)
(566.6572 0 0 42.01412 0 0)
(566.6573 0 0 42.01413 0 0)
(562.8647 0 0 44.00175 0 0)
(562.8649 0 0 44.00176 0 0)
(555.9097 0 0 45.7995 0 0)
(555.9098 0 0 45.79951 0 0)
(545.6837 5.31591e-14 0 47.36252 0 0)
(545.6838 -5.315911e-14 0 47.36253 0 0)
(532.0737 0 0 48.64055 0 0)
(532.0738 0 0 48.64056 0 0)
(514.9565 0 0 49.57628 0 0)
(514.9565 0 0 49.57628 0 0)
(494.1944 4.842402e-14 0 50.10331 0 0)
(494.1944 -4.842403e-14 0 50.10332 0 0)
(469.6305 0 0 50.14361 0 0)
(469.6305 0 0 50.14362 0 0)
(441.086 0 0 49.6046 0 0)
(441.0862 0 0 49.60462 0 0)
(408.3599 0 0 48.37623 0 0)
(408.3601 0 0 48.37625 0 0)
(371.234 1.467258e-13 0 46.32868 0 0)
(371.2342 0 0 46.3287 0 0)
(329.4842 0 0 43.31156 0 0)
(329.4843 6.525009e-14 0 43.31158 0 0)
(282.9298 0 0 39.16032 0 0)
(282.9301 0 0 39.16035 0 0)
(231.5053 0 0 33.71056 0 0)
(231.5056 0 0 33.71059 0 0)
(175.7489 0 0 26.88406 0 0)
(175.749 6.975158e-14 0 26.88409 0 0)
(117.84 0 0 18.89127 0 0)
(117.84 0 0 18.89126 0 0)
(65.46258 0 0 10.95836 0 0)
(65.46247 0 0 10.95834 0 0)
(29.18544 0 0 5.073815 0 0)
(29.18537 0 0 5.073803 0 0)
(12.52265 0 0 2.246621 0 0)
(12.52263 0 0 2.246618 0 0)
(5.026633 0 0 0.9252002 0 0)
(5.026625 0 0 0.9251987 0 0)
(2.668977 0 0 0.5011034 0 0)
(2.66897 0 0 0.5011022 0 0)
(0.38354 0 0 0.07301511 0 0)
(0.3835413 0 0 0.07301537 0 0)
(0.2250684 1.503134e-16 0 0.0431623 0 0)
(0.2250678 0 0 0.04316218 0 0)
)
;

boundaryField
{
    leftandright
    {
        type            cyclic;
        value           nonuniform List<symmTensor> 
150
(
(3.084765e-05 0 0 6.799831e-10 0 0)
(0.00160812 0 0 1.632444e-07 0 0)
(0.01071217 0 0 2.601685e-06 0 0)
(0.03932661 0 0 1.748244e-05 0 0)
(0.1065156 0 0 7.49734e-05 0 0)
(0.2392417 0 0 0.0002434222 0 0)
(0.4726381 9.053143e-36 0 0.0006528695 0 0)
(0.8493962 0 0 0.001521186 0 0)
(1.417939 7.253595e-20 0 0.003178014 0 0)
(2.229213 0 0 0.006080078 0 0)
(3.332298 0 0 0.01081142 0 0)
(4.769498 1.11334e-34 0 0.01806498 0 0)
(6.5721 0 0 0.0286077 0 0)
(8.758053 -7.994289e-34 0 0.04323825 0 0)
(11.33257 0 0 0.06275148 0 0)
(14.29188 2.831329e-18 0 0.08792435 0 0)
(17.62946 0 0 0.1195328 0 0)
(21.31261 -9.220279e-18 0 0.1581728 0 0)
(26.59482 0 0 0.2147293 0 0)
(33.64805 1.551463e-17 0 0.2940547 0 0)
(41.6002 0 0 0.392011 0 0)
(50.50807 -4.888865e-17 0 0.5118746 0 0)
(60.40732 -5.972172e-17 0 0.6572602 0 0)
(71.34001 0 0 0.8324335 0 0)
(83.35364 8.572901e-17 0 1.042394 0 0)
(96.498 1.011627e-16 0 1.292926 0 0)
(110.8205 2.368069e-16 0 1.590623 0 0)
(126.3608 0 0 1.942869 0 0)
(143.1446 0 0 2.357776 0 0)
(161.1781 0 0 2.844074 0 0)
(180.4419 0 0 3.410935 0 0)
(200.8864 -4.719913e-16 0 4.067749 0 0)
(222.4291 1.597515e-15 0 4.823846 0 0)
(244.9525 0 0 5.688176 0 0)
(268.3051 -1.332662e-15 0 6.668967 0 0)
(292.3033 0 0 7.773371 0 0)
(316.7359 -1.629101e-15 0 9.007108 0 0)
(341.3686 0 0 10.37415 0 0)
(365.9501 0 0 11.87641 0 0)
(390.2183 0 0 13.51349 0 0)
(413.9056 0 0 15.28246 0 0)
(436.7452 0 0 17.17775 0 0)
(458.4754 0 0 19.191 0 0)
(478.8438 1.087628e-14 0 21.31102 0 0)
(497.6109 5.710903e-15 0 23.52382 0 0)
(514.552 0 0 25.81266 0 0)
(529.4591 0 0 28.15808 0 0)
(542.1416 0 0 30.53805 0 0)
(552.426 -1.30977e-14 0 32.92806 0 0)
(560.1553 -2.95882e-29 0 35.30118 0 0)
(565.1878 0 0 37.62813 0 0)
(567.3946 0 0 39.8772 0 0)
(566.6572 0 0 42.01413 0 0)
(562.8648 0 0 44.00176 0 0)
(555.9097 0 0 45.7995 0 0)
(545.6837 4.670305e-30 0 47.36252 0 0)
(532.0737 0 0 48.64055 0 0)
(514.9565 0 0 49.57628 0 0)
(494.1944 9.881137e-30 0 50.10332 0 0)
(469.6305 0 0 50.14362 0 0)
(441.0861 0 0 49.60461 0 0)
(408.36 0 0 48.37624 0 0)
(371.2341 7.336291e-14 0 46.32869 0 0)
(329.4842 3.262504e-14 0 43.31157 0 0)
(282.9299 0 0 39.16034 0 0)
(231.5055 0 0 33.71057 0 0)
(175.7489 3.487578e-14 0 26.88408 0 0)
(117.84 0 0 18.89126 0 0)
(65.46253 0 0 10.95835 0 0)
(29.18541 0 0 5.073809 0 0)
(12.52264 0 0 2.24662 0 0)
(5.026629 0 0 0.9251994 0 0)
(2.668973 0 0 0.5011028 0 0)
(0.3835406 0 0 0.07301524 0 0)
(0.2250681 7.515659e-17 0 0.04316224 0 0)
(3.084765e-05 0 0 6.799831e-10 0 0)
(0.00160812 0 0 1.632444e-07 0 0)
(0.01071217 0 0 2.601685e-06 0 0)
(0.03932661 0 0 1.748244e-05 0 0)
(0.1065156 0 0 7.49734e-05 0 0)
(0.2392417 0 0 0.0002434222 0 0)
(0.4726381 1.005905e-35 0 0.0006528695 0 0)
(0.8493962 0 0 0.001521186 0 0)
(1.417939 7.253595e-20 0 0.003178014 0 0)
(2.229213 0 0 0.006080078 0 0)
(3.332298 0 0 0.01081142 0 0)
(4.769498 1.11334e-34 0 0.01806498 0 0)
(6.5721 0 0 0.0286077 0 0)
(8.758053 -7.994289e-34 0 0.04323825 0 0)
(11.33257 0 0 0.06275148 0 0)
(14.29188 2.831329e-18 0 0.08792435 0 0)
(17.62946 0 0 0.1195328 0 0)
(21.31261 -9.220279e-18 0 0.1581728 0 0)
(26.59482 0 0 0.2147293 0 0)
(33.64805 1.551463e-17 0 0.2940547 0 0)
(41.6002 0 0 0.392011 0 0)
(50.50807 -4.888865e-17 0 0.5118746 0 0)
(60.40732 -5.972172e-17 0 0.6572602 0 0)
(71.34001 0 0 0.8324335 0 0)
(83.35364 8.572901e-17 0 1.042394 0 0)
(96.498 1.011627e-16 0 1.292926 0 0)
(110.8205 2.368069e-16 0 1.590623 0 0)
(126.3608 0 0 1.942869 0 0)
(143.1446 0 0 2.357776 0 0)
(161.1781 0 0 2.844074 0 0)
(180.4419 0 0 3.410935 0 0)
(200.8864 -4.719913e-16 0 4.067749 0 0)
(222.4291 1.597515e-15 0 4.823846 0 0)
(244.9525 0 0 5.688176 0 0)
(268.3051 -1.332662e-15 0 6.668967 0 0)
(292.3033 0 0 7.773371 0 0)
(316.7359 -1.629101e-15 0 9.007108 0 0)
(341.3686 0 0 10.37415 0 0)
(365.9501 0 0 11.87641 0 0)
(390.2183 0 0 13.51349 0 0)
(413.9056 0 0 15.28246 0 0)
(436.7452 0 0 17.17775 0 0)
(458.4754 0 0 19.191 0 0)
(478.8438 1.087628e-14 0 21.31102 0 0)
(497.6109 5.710903e-15 0 23.52382 0 0)
(514.552 0 0 25.81266 0 0)
(529.4591 0 0 28.15808 0 0)
(542.1416 0 0 30.53805 0 0)
(552.426 -1.30977e-14 0 32.92806 0 0)
(560.1553 -2.95882e-29 0 35.30118 0 0)
(565.1878 0 0 37.62813 0 0)
(567.3946 0 0 39.8772 0 0)
(566.6572 0 0 42.01413 0 0)
(562.8648 0 0 44.00176 0 0)
(555.9097 0 0 45.7995 0 0)
(545.6837 4.670305e-30 0 47.36252 0 0)
(532.0737 0 0 48.64055 0 0)
(514.9565 0 0 49.57628 0 0)
(494.1944 9.881137e-30 0 50.10332 0 0)
(469.6305 0 0 50.14362 0 0)
(441.0861 0 0 49.60461 0 0)
(408.36 0 0 48.37624 0 0)
(371.2341 7.336291e-14 0 46.32869 0 0)
(329.4842 3.262504e-14 0 43.31157 0 0)
(282.9299 0 0 39.16034 0 0)
(231.5055 0 0 33.71057 0 0)
(175.7489 3.487578e-14 0 26.88408 0 0)
(117.84 0 0 18.89126 0 0)
(65.46253 0 0 10.95835 0 0)
(29.18541 0 0 5.073809 0 0)
(12.52264 0 0 2.24662 0 0)
(5.026629 0 0 0.9251994 0 0)
(2.668973 0 0 0.5011028 0 0)
(0.3835406 0 0 0.07301524 0 0)
(0.2250681 7.515659e-17 0 0.04316224 0 0)
)
;
    }
    wall
    {
        type            calculated;
        value           nonuniform List<symmTensor> 2((9.456354e-08 0 0 6.14663e-08 0 0) (9.456282e-08 0 0 6.146584e-08 0 0));
    }
    frontAndBack
    {
        type            empty;
    }
    middle
    {
        type            symmetryPlane;
        value           nonuniform List<symmTensor> 2((0.2250684 0 0 0.0431623 0 0) (0.2250678 0 0 0.04316218 0 0));
    }
}


// ************************************************************************* //
