/*--------------------------------*- C++ -*----------------------------------*\
| =========                 |                                                 |
| \\      /  F ield         | foam-extend: Open Source CFD                    |
|  \\    /   O peration     | Version:     4.0                                |
|   \\  /    A nd           | Web:         http://www.foam-extend.org         |
|    \\/     M anipulation  |                                                 |
\*---------------------------------------------------------------------------*/
FoamFile
{
    version     2.0;
    format      ascii;
    class       volSymmTensorField;
    location    "100";
    object      NLTPlus;
}
// * * * * * * * * * * * * * * * * * * * * * * * * * * * * * * * * * * * * * //

dimensions      [0 2 -2 0 0 0 0];

internalField   nonuniform List<symmTensor> 
150
(
(1.713765e-07 0 0 3.777698e-12 0 0)
(1.713752e-07 0 0 3.77767e-12 0 0)
(8.934035e-06 0 0 9.069167e-10 0 0)
(8.933966e-06 0 0 9.069098e-10 0 0)
(5.95123e-05 0 0 1.445386e-08 0 0)
(5.951185e-05 0 0 1.445375e-08 0 0)
(0.0002184819 0 0 9.712499e-08 0 0)
(0.0002184804 0 0 9.712432e-08 0 0)
(0.0005917553 0 0 4.165201e-07 0 0)
(0.0005917518 0 0 4.165176e-07 0 0)
(0.001329124 0 0 1.352349e-06 0 0)
(0.001329117 0 0 1.352342e-06 0 0)
(0.002625772 -9.146418e-23 0 3.62706e-06 0 0)
(0.002625763 9.146384e-23 0 3.627046e-06 0 0)
(0.004718874 0 0 8.451042e-06 0 0)
(0.004718861 0 0 8.45102e-06 0 0)
(0.007877444 0 0 1.765565e-05 0 0)
(0.007877429 8.059543e-22 0 1.765562e-05 0 0)
(0.01238453 0 0 3.377823e-05 0 0)
(0.01238451 0 0 3.37782e-05 0 0)
(0.01851277 0 0 6.006344e-05 0 0)
(0.01851276 0 0 6.006342e-05 0 0)
(0.02649721 7.889944e-21 0 0.000100361 0 0)
(0.02649721 -7.889944e-21 0 0.000100361 0 0)
(0.03651166 0 0 0.0001589316 0 0)
(0.03651167 0 0 0.0001589317 0 0)
(0.04865583 -1.70925e-20 0 0.0002402124 0 0)
(0.04865587 1.709251e-20 0 0.0002402126 0 0)
(0.0629587 0 0 0.0003486191 0 0)
(0.06295877 0 0 0.0003486195 0 0)
(0.0793993 3.145919e-20 0 0.0004884682 0 0)
(0.07939942 0 0 0.000488469 0 0)
(0.09794137 0 0 0.0006640706 0 0)
(0.09794156 0 0 0.0006640719 0 0)
(0.1184032 -1.024474e-19 0 0.0008787368 0 0)
(0.1184035 0 0 0.0008787388 0 0)
(0.1477488 0 0 0.001192939 0 0)
(0.1477492 0 0 0.001192942 0 0)
(0.1869334 3.447692e-19 0 0.001633635 0 0)
(0.1869338 -1.723851e-19 0 0.00163364 0 0)
(0.2311119 0 0 0.002177836 0 0)
(0.2311125 0 0 0.002177842 0 0)
(0.2806001 -5.432065e-19 0 0.002843744 0 0)
(0.2806007 0 0 0.002843751 0 0)
(0.3355959 -6.635739e-19 0 0.003651441 0 0)
(0.3355966 0 0 0.00365145 0 0)
(0.396333 0 0 0.004624626 0 0)
(0.3963338 0 0 0.004624635 0 0)
(0.4630753 9.525437e-19 0 0.00579107 0 0)
(0.4630762 0 0 0.005791081 0 0)
(0.5360996 1.124029e-18 0 0.007182916 0 0)
(0.5361004 0 0 0.007182928 0 0)
(0.6156691 2.631186e-18 0 0.008836789 0 0)
(0.6156699 0 0 0.008836801 0 0)
(0.7020039 0 0 0.01079371 0 0)
(0.7020047 0 0 0.01079372 0 0)
(0.7952476 0 0 0.01309875 0 0)
(0.7952484 0 0 0.01309876 0 0)
(0.8954337 0 0 0.0158004 0 0)
(0.8954344 0 0 0.01580042 0 0)
(1.002454 -4.622321e-18 0 0.01894963 0 0)
(1.002455 4.622324e-18 0 0.01894965 0 0)
(1.116035 -5.244346e-18 0 0.0225986 0 0)
(1.116036 0 0 0.02259861 0 0)
(1.235717 1.775017e-17 0 0.02679914 0 0)
(1.235717 0 0 0.02679915 0 0)
(1.360847 0 0 0.03160097 0 0)
(1.360848 0 0 0.03160098 0 0)
(1.490583 -1.480735e-17 0 0.03704981 0 0)
(1.490584 0 0 0.03704983 0 0)
(1.623907 0 0 0.04318539 0 0)
(1.623908 0 0 0.04318541 0 0)
(1.759643 -3.620223e-17 0 0.05003948 0 0)
(1.759644 1.810112e-17 0 0.0500395 0 0)
(1.896492 0 0 0.05763416 0 0)
(1.896493 0 0 0.05763419 0 0)
(2.033056 0 0 0.06598003 0 0)
(2.033056 0 0 0.06598005 0 0)
(2.167879 0 0 0.07507491 0 0)
(2.16788 0 0 0.07507494 0 0)
(2.299475 0 0 0.08490255 0 0)
(2.299476 0 0 0.08490259 0 0)
(2.426362 0 0 0.09543194 0 0)
(2.426363 0 0 0.09543198 0 0)
(2.547085 0 0 0.1066166 0 0)
(2.547086 0 0 0.1066167 0 0)
(2.660243 1.208476e-16 0 0.1183945 0 0)
(2.660244 0 0 0.1183946 0 0)
(2.764504 6.345447e-17 0 0.1306879 0 0)
(2.764505 0 0 0.1306879 0 0)
(2.858622 0 0 0.1434036 0 0)
(2.858623 0 0 0.1434037 0 0)
(2.941439 0 0 0.1564337 0 0)
(2.94144 0 0 0.1564338 0 0)
(3.011897 0 0 0.1696558 0 0)
(3.011899 0 0 0.1696559 0 0)
(3.069033 -1.4553e-16 0 0.1829336 0 0)
(3.069034 0 0 0.1829337 0 0)
(3.111973 -1.484315e-16 0 0.1961176 0 0)
(3.111975 1.484316e-16 0 0.1961177 0 0)
(3.139932 0 0 0.2090451 0 0)
(3.139933 0 0 0.2090452 0 0)
(3.152191 0 0 0.22154 0 0)
(3.152192 0 0 0.22154 0 0)
(3.148095 0 0 0.2334118 0 0)
(3.148096 0 0 0.2334118 0 0)
(3.127026 0 0 0.2444542 0 0)
(3.127027 0 0 0.2444542 0 0)
(3.088387 0 0 0.2544417 0 0)
(3.088388 0 0 0.2544417 0 0)
(3.031576 2.953283e-16 0 0.2631251 0 0)
(3.031576 -2.953284e-16 0 0.2631252 0 0)
(2.955965 0 0 0.2702253 0 0)
(2.955965 0 0 0.2702253 0 0)
(2.860869 0 0 0.2754238 0 0)
(2.86087 0 0 0.2754238 0 0)
(2.745524 2.690224e-16 0 0.2783517 0 0)
(2.745525 -2.690224e-16 0 0.2783518 0 0)
(2.609058 0 0 0.2785756 0 0)
(2.609059 0 0 0.2785757 0 0)
(2.450478 0 0 0.2755811 0 0)
(2.450479 0 0 0.2755812 0 0)
(2.268666 0 0 0.2687568 0 0)
(2.268667 0 0 0.2687569 0 0)
(2.062411 8.151433e-16 0 0.2573815 0 0)
(2.062412 0 0 0.2573817 0 0)
(1.830468 0 0 0.2406198 0 0)
(1.830468 3.625005e-16 0 0.2406199 0 0)
(1.571832 0 0 0.2175573 0 0)
(1.571834 0 0 0.2175575 0 0)
(1.286141 0 0 0.1872809 0 0)
(1.286142 0 0 0.1872811 0 0)
(0.9763825 0 0 0.1493559 0 0)
(0.9763835 3.875088e-16 0 0.1493561 0 0)
(0.6546669 0 0 0.1049515 0 0)
(0.6546667 0 0 0.1049514 0 0)
(0.363681 0 0 0.06087977 0 0)
(0.3636804 0 0 0.06087967 0 0)
(0.1621413 0 0 0.02818786 0 0)
(0.162141 0 0 0.02818779 0 0)
(0.06957026 0 0 0.01248123 0 0)
(0.06957018 0 0 0.01248121 0 0)
(0.02792574 0 0 0.005140001 0 0)
(0.02792569 0 0 0.005139993 0 0)
(0.01482765 0 0 0.002783908 0 0)
(0.01482761 0 0 0.002783901 0 0)
(0.002130778 0 0 0.0004056395 0 0)
(0.002130785 0 0 0.0004056409 0 0)
(0.00125038 8.350744e-19 0 0.0002397906 0 0)
(0.001250376 0 0 0.0002397899 0 0)
)
;

boundaryField
{
    leftandright
    {
        type            cyclic;
        value           nonuniform List<symmTensor> 
150
(
(1.713758e-07 0 0 3.777684e-12 0 0)
(8.934e-06 0 0 9.069133e-10 0 0)
(5.951207e-05 0 0 1.44538e-08 0 0)
(0.0002184812 0 0 9.712466e-08 0 0)
(0.0005917536 0 0 4.165189e-07 0 0)
(0.001329121 0 0 1.352346e-06 0 0)
(0.002625767 5.029524e-38 0 3.627053e-06 0 0)
(0.004718868 0 0 8.451031e-06 0 0)
(0.007877436 4.029775e-22 0 1.765564e-05 0 0)
(0.01238452 0 0 3.377821e-05 0 0)
(0.01851276 0 0 6.006343e-05 0 0)
(0.02649721 6.185223e-37 0 0.000100361 0 0)
(0.03651167 0 0 0.0001589317 0 0)
(0.04865585 -4.441272e-36 0 0.0002402125 0 0)
(0.06295873 0 0 0.0003486193 0 0)
(0.07939936 1.572961e-20 0 0.0004884686 0 0)
(0.09794146 0 0 0.0006640713 0 0)
(0.1184034 -5.122377e-20 0 0.0008787378 0 0)
(0.147749 0 0 0.001192941 0 0)
(0.1869336 8.619241e-20 0 0.001633637 0 0)
(0.2311122 0 0 0.002177839 0 0)
(0.2806004 -2.716036e-19 0 0.002843748 0 0)
(0.3355962 -3.317873e-19 0 0.003651445 0 0)
(0.3963334 0 0 0.004624631 0 0)
(0.4630758 4.762723e-19 0 0.005791076 0 0)
(0.5361 5.620148e-19 0 0.007182922 0 0)
(0.6156695 1.315594e-18 0 0.008836795 0 0)
(0.7020043 0 0 0.01079372 0 0)
(0.795248 0 0 0.01309876 0 0)
(0.895434 0 0 0.01580041 0 0)
(1.002455 0 0 0.01894964 0 0)
(1.116036 -2.622174e-18 0 0.0225986 0 0)
(1.235717 8.875085e-18 0 0.02679914 0 0)
(1.360847 0 0 0.03160098 0 0)
(1.490584 -7.403678e-18 0 0.03704982 0 0)
(1.623907 0 0 0.0431854 0 0)
(1.759644 -9.050559e-18 0 0.05003949 0 0)
(1.896492 0 0 0.05763417 0 0)
(2.033056 0 0 0.06598004 0 0)
(2.16788 0 0 0.07507492 0 0)
(2.299476 0 0 0.08490257 0 0)
(2.426362 0 0 0.09543196 0 0)
(2.547086 0 0 0.1066167 0 0)
(2.660243 6.04238e-17 0 0.1183946 0 0)
(2.764505 3.172724e-17 0 0.1306879 0 0)
(2.858622 0 0 0.1434037 0 0)
(2.94144 0 0 0.1564338 0 0)
(3.011898 0 0 0.1696558 0 0)
(3.069034 -7.276502e-17 0 0.1829337 0 0)
(3.111974 -1.643789e-31 0 0.1961177 0 0)
(3.139932 0 0 0.2090452 0 0)
(3.152192 0 0 0.22154 0 0)
(3.148096 0 0 0.2334118 0 0)
(3.127027 0 0 0.2444542 0 0)
(3.088387 0 0 0.2544417 0 0)
(3.031576 2.594614e-32 0 0.2631251 0 0)
(2.955965 0 0 0.2702253 0 0)
(2.86087 0 0 0.2754238 0 0)
(2.745524 5.48952e-32 0 0.2783518 0 0)
(2.609058 0 0 0.2785756 0 0)
(2.450478 0 0 0.2755812 0 0)
(2.268667 0 0 0.2687569 0 0)
(2.062412 4.075717e-16 0 0.2573816 0 0)
(1.830468 1.812502e-16 0 0.2406198 0 0)
(1.571833 0 0 0.2175574 0 0)
(1.286142 0 0 0.187281 0 0)
(0.976383 1.937543e-16 0 0.149356 0 0)
(0.6546668 0 0 0.1049515 0 0)
(0.3636807 0 0 0.06087972 0 0)
(0.1621412 0 0 0.02818783 0 0)
(0.06957022 0 0 0.01248122 0 0)
(0.02792572 0 0 0.005139997 0 0)
(0.01482763 0 0 0.002783904 0 0)
(0.002130781 0 0 0.0004056402 0 0)
(0.001250378 4.175366e-19 0 0.0002397902 0 0)
(1.713758e-07 0 0 3.777684e-12 0 0)
(8.934e-06 0 0 9.069133e-10 0 0)
(5.951207e-05 0 0 1.44538e-08 0 0)
(0.0002184812 0 0 9.712466e-08 0 0)
(0.0005917536 0 0 4.165189e-07 0 0)
(0.001329121 0 0 1.352346e-06 0 0)
(0.002625767 5.58836e-38 0 3.627053e-06 0 0)
(0.004718868 0 0 8.451031e-06 0 0)
(0.007877436 4.029775e-22 0 1.765564e-05 0 0)
(0.01238452 0 0 3.377821e-05 0 0)
(0.01851276 0 0 6.006343e-05 0 0)
(0.02649721 6.185223e-37 0 0.000100361 0 0)
(0.03651167 0 0 0.0001589317 0 0)
(0.04865585 -4.441272e-36 0 0.0002402125 0 0)
(0.06295873 0 0 0.0003486193 0 0)
(0.07939936 1.572961e-20 0 0.0004884686 0 0)
(0.09794146 0 0 0.0006640713 0 0)
(0.1184034 -5.122377e-20 0 0.0008787378 0 0)
(0.147749 0 0 0.001192941 0 0)
(0.1869336 8.619241e-20 0 0.001633637 0 0)
(0.2311122 0 0 0.002177839 0 0)
(0.2806004 -2.716036e-19 0 0.002843748 0 0)
(0.3355962 -3.317873e-19 0 0.003651445 0 0)
(0.3963334 0 0 0.004624631 0 0)
(0.4630758 4.762723e-19 0 0.005791076 0 0)
(0.5361 5.620148e-19 0 0.007182922 0 0)
(0.6156695 1.315594e-18 0 0.008836795 0 0)
(0.7020043 0 0 0.01079372 0 0)
(0.795248 0 0 0.01309876 0 0)
(0.895434 0 0 0.01580041 0 0)
(1.002455 0 0 0.01894964 0 0)
(1.116036 -2.622174e-18 0 0.0225986 0 0)
(1.235717 8.875085e-18 0 0.02679914 0 0)
(1.360847 0 0 0.03160098 0 0)
(1.490584 -7.403678e-18 0 0.03704982 0 0)
(1.623907 0 0 0.0431854 0 0)
(1.759644 -9.050559e-18 0 0.05003949 0 0)
(1.896492 0 0 0.05763417 0 0)
(2.033056 0 0 0.06598004 0 0)
(2.16788 0 0 0.07507492 0 0)
(2.299476 0 0 0.08490257 0 0)
(2.426362 0 0 0.09543196 0 0)
(2.547086 0 0 0.1066167 0 0)
(2.660243 6.04238e-17 0 0.1183946 0 0)
(2.764505 3.172724e-17 0 0.1306879 0 0)
(2.858622 0 0 0.1434037 0 0)
(2.94144 0 0 0.1564338 0 0)
(3.011898 0 0 0.1696558 0 0)
(3.069034 -7.276502e-17 0 0.1829337 0 0)
(3.111974 -1.643789e-31 0 0.1961177 0 0)
(3.139932 0 0 0.2090452 0 0)
(3.152192 0 0 0.22154 0 0)
(3.148096 0 0 0.2334118 0 0)
(3.127027 0 0 0.2444542 0 0)
(3.088387 0 0 0.2544417 0 0)
(3.031576 2.594614e-32 0 0.2631251 0 0)
(2.955965 0 0 0.2702253 0 0)
(2.86087 0 0 0.2754238 0 0)
(2.745524 5.48952e-32 0 0.2783518 0 0)
(2.609058 0 0 0.2785756 0 0)
(2.450478 0 0 0.2755812 0 0)
(2.268667 0 0 0.2687569 0 0)
(2.062412 4.075717e-16 0 0.2573816 0 0)
(1.830468 1.812502e-16 0 0.2406198 0 0)
(1.571833 0 0 0.2175574 0 0)
(1.286142 0 0 0.187281 0 0)
(0.976383 1.937543e-16 0 0.149356 0 0)
(0.6546668 0 0 0.1049515 0 0)
(0.3636807 0 0 0.06087972 0 0)
(0.1621412 0 0 0.02818783 0 0)
(0.06957022 0 0 0.01248122 0 0)
(0.02792572 0 0 0.005139997 0 0)
(0.01482763 0 0 0.002783904 0 0)
(0.002130781 0 0 0.0004056402 0 0)
(0.001250378 4.175366e-19 0 0.0002397902 0 0)
)
;
    }
    wall
    {
        type            calculated;
        value           nonuniform List<symmTensor> 2((5.25353e-10 0 0 3.414794e-10 0 0) (5.25349e-10 0 0 3.414769e-10 0 0));
    }
    frontAndBack
    {
        type            empty;
    }
    middle
    {
        type            symmetryPlane;
        value           nonuniform List<symmTensor> 2((0.00125038 0 0 0.0002397906 0 0) (0.001250376 0 0 0.0002397899 0 0));
    }
}


// ************************************************************************* //
