/*--------------------------------*- C++ -*----------------------------------*\
| =========                 |                                                 |
| \\      /  F ield         | foam-extend: Open Source CFD                    |
|  \\    /   O peration     | Version:     4.0                                |
|   \\  /    A nd           | Web:         http://www.foam-extend.org         |
|    \\/     M anipulation  |                                                 |
\*---------------------------------------------------------------------------*/
FoamFile
{
    version     2.0;
    format      ascii;
    class       volScalarField;
    location    "100";
    object      nut;
}
// * * * * * * * * * * * * * * * * * * * * * * * * * * * * * * * * * * * * * //

dimensions      [0 2 -1 0 0 0 0];

internalField   nonuniform List<scalar> 
150
(
6.494462e-10
6.494463e-10
3.390113e-08
3.390113e-08
2.2613e-07
2.2613e-07
8.313167e-07
8.313168e-07
2.254911e-06
2.254912e-06
5.072992e-06
5.072993e-06
1.004139e-05
1.004139e-05
1.808838e-05
1.808838e-05
3.028454e-05
3.028454e-05
4.778562e-05
4.778562e-05
7.175016e-05
7.175017e-05
0.000103242
0.000103242
0.0001431364
0.0001431364
0.0001920523
0.0001920523
0.0002503279
0.000250328
0.0003180445
0.0003180445
0.0003950863
0.0003950863
0.0004812163
0.0004812164
0.0006067598
0.0006067599
0.0007782815
0.0007782816
0.0009766948
0.0009766949
0.001203711
0.001203711
0.001461307
0.001461307
0.001751705
0.001751705
0.002077333
0.002077333
0.002440789
0.002440789
0.002844804
0.002844805
0.003292207
0.003292207
0.00378589
0.00378589
0.004328785
0.004328785
0.004923823
0.004923823
0.005573907
0.005573907
0.006281875
0.006281875
0.007050466
0.007050466
0.007882281
0.007882282
0.008779749
0.008779749
0.009745087
0.009745087
0.01078027
0.01078027
0.01188701
0.01188701
0.0130667
0.0130667
0.01432044
0.01432044
0.01564899
0.01564899
0.01705278
0.01705278
0.01853193
0.01853193
0.02008625
0.02008625
0.0217153
0.0217153
0.02341844
0.02341844
0.02519491
0.02519491
0.02704396
0.02704396
0.02896494
0.02896494
0.03095753
0.03095753
0.03302191
0.03302191
0.03515903
0.03515903
0.0373709
0.0373709
0.03966092
0.03966092
0.04203425
0.04203425
0.04449816
0.04449816
0.0470624
0.0470624
0.04973947
0.04973947
0.05254472
0.05254472
0.05549623
0.05549623
0.05861422
0.05861421
0.0619198
0.0619198
0.06543285
0.06543285
0.06916846
0.06916846
0.0731317
0.0731317
0.07730963
0.07730963
0.08165927
0.08165926
0.08608791
0.0860879
0.09042009
0.09042008
0.09451208
0.09451208
0.09829353
0.09829353
0.1015934
0.1015934
0.104136
0.104136
0.1055758
0.1055758
)
;

boundaryField
{
    leftandright
    {
        type            cyclic;
        value           nonuniform List<scalar> 
150
(
6.494462e-10
3.390113e-08
2.2613e-07
8.313168e-07
2.254912e-06
5.072992e-06
1.004139e-05
1.808838e-05
3.028454e-05
4.778562e-05
7.175016e-05
0.000103242
0.0001431364
0.0001920523
0.0002503279
0.0003180445
0.0003950863
0.0004812163
0.0006067599
0.0007782815
0.0009766948
0.001203711
0.001461307
0.001751705
0.002077333
0.002440789
0.002844805
0.003292207
0.00378589
0.004328785
0.004923823
0.005573907
0.006281875
0.007050466
0.007882282
0.008779749
0.009745087
0.01078027
0.01188701
0.0130667
0.01432044
0.01564899
0.01705278
0.01853193
0.02008625
0.0217153
0.02341844
0.02519491
0.02704396
0.02896494
0.03095753
0.03302191
0.03515903
0.0373709
0.03966092
0.04203425
0.04449816
0.0470624
0.04973947
0.05254472
0.05549623
0.05861421
0.0619198
0.06543285
0.06916846
0.0731317
0.07730963
0.08165926
0.0860879
0.09042008
0.09451208
0.09829353
0.1015934
0.104136
0.1055758
6.494462e-10
3.390113e-08
2.2613e-07
8.313168e-07
2.254912e-06
5.072992e-06
1.004139e-05
1.808838e-05
3.028454e-05
4.778562e-05
7.175016e-05
0.000103242
0.0001431364
0.0001920523
0.0002503279
0.0003180445
0.0003950863
0.0004812163
0.0006067599
0.0007782815
0.0009766948
0.001203711
0.001461307
0.001751705
0.002077333
0.002440789
0.002844805
0.003292207
0.00378589
0.004328785
0.004923823
0.005573907
0.006281875
0.007050466
0.007882282
0.008779749
0.009745087
0.01078027
0.01188701
0.0130667
0.01432044
0.01564899
0.01705278
0.01853193
0.02008625
0.0217153
0.02341844
0.02519491
0.02704396
0.02896494
0.03095753
0.03302191
0.03515903
0.0373709
0.03966092
0.04203425
0.04449816
0.0470624
0.04973947
0.05254472
0.05549623
0.05861421
0.0619198
0.06543285
0.06916846
0.0731317
0.07730963
0.08165926
0.0860879
0.09042008
0.09451208
0.09829353
0.1015934
0.104136
0.1055758
)
;
    }
    wall
    {
        type            nutLowReWallFunction;
        Cmu             0.09;
        kappa           0.41;
        E               9.8;
        value           nonuniform List<scalar> 2(1.989595e-12 1.989595e-12);
    }
    frontAndBack
    {
        type            empty;
    }
    middle
    {
        type            symmetryPlane;
        value           nonuniform List<scalar> 2(0.1055758 0.1055758);
    }
}


// ************************************************************************* //
