/*--------------------------------*- C++ -*----------------------------------*\
| =========                 |                                                 |
| \\      /  F ield         | foam-extend: Open Source CFD                    |
|  \\    /   O peration     | Version:     4.0                                |
|   \\  /    A nd           | Web:         http://www.foam-extend.org         |
|    \\/     M anipulation  |                                                 |
\*---------------------------------------------------------------------------*/
FoamFile
{
    version     2.0;
    format      ascii;
    class       volScalarField;
    location    "100";
    object      p;
}
// * * * * * * * * * * * * * * * * * * * * * * * * * * * * * * * * * * * * * //

dimensions      [0 2 -2 0 0 0 0];

internalField   nonuniform List<scalar> 
150
(
-9.067026e-09
-0.05000006
-1.929986e-06
-0.05000198
-1.093769e-05
-0.05001098
-3.811959e-05
-0.05003816
-9.994177e-05
-0.05009998
-0.0002186873
-0.05021872
-0.0004226026
-0.05042263
-0.000745801
-0.05074583
-0.001227943
-0.05122797
-0.001913686
-0.05191371
-0.00285192
-0.05285194
-0.004094819
-0.05409484
-0.005696778
-0.05569679
-0.007713338
-0.05771335
-0.01020027
-0.06020028
-0.01321314
-0.06321315
-0.01680701
-0.06680702
-0.02103218
-0.07103219
-0.02592437
-0.07592437
-0.03150188
-0.08150189
-0.03777501
-0.08777502
-0.04475157
-0.09475158
-0.05243261
-0.1024326
-0.06080838
-0.1108084
-0.06985752
-0.1198575
-0.07954713
-0.1295471
-0.08983322
-0.1398332
-0.1006615
-0.1506615
-0.1119687
-0.1619687
-0.1236838
-0.1736838
-0.1357298
-0.1857298
-0.1480254
-0.1980254
-0.1604868
-0.2104868
-0.1730289
-0.223029
-0.1855673
-0.2355673
-0.1980188
-0.2480188
-0.2103033
-0.2603033
-0.222344
-0.2723441
-0.2340687
-0.2840687
-0.2454098
-0.2954098
-0.256305
-0.306305
-0.2666976
-0.3166976
-0.2765369
-0.3265369
-0.285778
-0.335778
-0.2943823
-0.3443823
-0.3023174
-0.3523174
-0.3095576
-0.3595576
-0.3160837
-0.3660837
-0.3218836
-0.3718836
-0.3269523
-0.3769523
-0.3312928
-0.3812928
-0.3349161
-0.3849161
-0.3378421
-0.3878421
-0.3401002
-0.3901002
-0.3417302
-0.3917302
-0.3427829
-0.3927829
-0.3433213
-0.3933213
-0.3434208
-0.3934208
-0.3431699
-0.3931699
-0.3426703
-0.3926703
-0.3420353
-0.3920353
-0.3413884
-0.3913884
-0.3408582
-0.3908582
-0.3405714
-0.3905714
-0.3406425
-0.3906425
-0.3411401
-0.3911401
-0.3420644
-0.3920644
-0.3430474
-0.3930474
-0.3434315
-0.3934315
-0.3409823
-0.3909823
-0.3386712
-0.3886712
-0.3270038
-0.3770038
-0.3421219
-0.3921219
-0.2710415
-0.3210415
-0.4584697
-0.5084697
)
;

boundaryField
{
    leftandright
    {
        type            fan;
        patchType       cyclic;
        f               1(-0.1);
        value           nonuniform List<scalar> 
150
(
0.02499997
0.02499805
0.02498904
0.02496186
0.02490004
0.0247813
0.02457738
0.02425419
0.02377205
0.0230863
0.02214807
0.02090517
0.01930321
0.01728666
0.01479972
0.01178686
0.008192989
0.003967818
-0.0009243711
-0.006501885
-0.01277502
-0.01975158
-0.02743261
-0.03580838
-0.04485753
-0.05454714
-0.06483322
-0.07566153
-0.08696871
-0.09868378
-0.1107298
-0.1230254
-0.1354868
-0.1480289
-0.1605673
-0.1730188
-0.1853033
-0.1973441
-0.2090687
-0.2204098
-0.231305
-0.2416976
-0.2515369
-0.260778
-0.2693823
-0.2773174
-0.2845576
-0.2910837
-0.2968836
-0.3019523
-0.3062928
-0.3099161
-0.3128421
-0.3151002
-0.3167302
-0.3177829
-0.3183213
-0.3184208
-0.3181699
-0.3176703
-0.3170353
-0.3163884
-0.3158582
-0.3155714
-0.3156425
-0.3161401
-0.3170644
-0.3180474
-0.3184315
-0.3159823
-0.3136712
-0.3020038
-0.3171219
-0.2460415
-0.4334697
-0.07500003
-0.07500195
-0.07501096
-0.07503814
-0.07509996
-0.0752187
-0.07542262
-0.07574581
-0.07622795
-0.0769137
-0.07785193
-0.07909483
-0.08069679
-0.08271334
-0.08520028
-0.08821314
-0.09180701
-0.09603218
-0.1009244
-0.1065019
-0.112775
-0.1197516
-0.1274326
-0.1358084
-0.1448575
-0.1545471
-0.1648332
-0.1756615
-0.1869687
-0.1986838
-0.2107298
-0.2230254
-0.2354868
-0.2480289
-0.2605673
-0.2730188
-0.2853033
-0.2973441
-0.3090687
-0.3204098
-0.331305
-0.3416976
-0.3515369
-0.360778
-0.3693823
-0.3773174
-0.3845576
-0.3910837
-0.3968836
-0.4019523
-0.4062928
-0.4099161
-0.4128421
-0.4151002
-0.4167302
-0.4177829
-0.4183213
-0.4184208
-0.4181699
-0.4176703
-0.4170353
-0.4163884
-0.4158582
-0.4155714
-0.4156425
-0.4161401
-0.4170644
-0.4180474
-0.4184315
-0.4159823
-0.4136712
-0.4020038
-0.4171219
-0.3460415
-0.5334697
)
;
    }
    wall
    {
        type            zeroGradient;
    }
    frontAndBack
    {
        type            empty;
    }
    middle
    {
        type            symmetryPlane;
        value           nonuniform List<scalar> 2(-0.4584697 -0.5084697);
    }
}


// ************************************************************************* //
