/*--------------------------------*- C++ -*----------------------------------*\
| =========                 |                                                 |
| \\      /  F ield         | foam-extend: Open Source CFD                    |
|  \\    /   O peration     | Version:     4.0                                |
|   \\  /    A nd           | Web:         http://www.foam-extend.org         |
|    \\/     M anipulation  |                                                 |
\*---------------------------------------------------------------------------*/
FoamFile
{
    version     2.0;
    format      ascii;
    class       surfaceScalarField;
    location    "100";
    object      phi;
}
// * * * * * * * * * * * * * * * * * * * * * * * * * * * * * * * * * * * * * //

dimensions      [0 3 -1 0 0 0 0];

internalField   nonuniform List<scalar> 
223
(
1.499716e-05
5.433259e-12
8.067338e-16
4.805534e-05
5.277943e-12
2.794257e-14
8.61401e-05
5.14824e-12
6.132668e-14
0.0001298483
5.04663e-12
9.952825e-14
0.0001798383
4.975404e-12
1.419228e-13
0.0002368338
4.9306e-12
1.882206e-13
0.0003016267
4.90426e-12
2.381124e-13
0.0003750794
4.886865e-12
2.91342e-13
0.0004581255
4.869768e-12
3.47858e-13
0.0005517707
4.846401e-12
4.078788e-13
0.0006570917
4.812456e-12
4.718641e-13
0.0007752367
4.765502e-12
5.403613e-13
0.0009074262
4.704305e-12
6.136638e-13
0.001054956
4.627687e-12
6.91021e-13
0.001219201
4.532889e-12
7.691593e-13
0.001401626
4.416514e-12
8.43125e-13
0.001603789
4.289556e-12
9.21646e-13
0.001827355
4.177086e-12
1.027306e-12
0.002073693
4.079747e-12
1.157937e-12
0.00234366
3.976645e-12
1.289772e-12
0.002638232
3.863039e-12
1.416312e-12
0.002958654
3.743592e-12
1.541815e-12
0.003306158
3.618048e-12
1.664858e-12
0.003681973
3.485505e-12
1.781812e-12
0.004087321
3.34524e-12
1.889606e-12
0.004523428
3.196539e-12
1.98658e-12
0.00499153
3.040293e-12
2.072721e-12
0.005492887
2.880524e-12
2.149155e-12
0.006028794
2.721365e-12
2.218322e-12
0.006600595
2.564085e-12
2.286151e-12
0.007209705
2.415595e-12
2.356425e-12
0.007857616
2.283881e-12
2.431777e-12
0.008545921
2.172104e-12
2.516594e-12
0.009276326
2.085846e-12
2.610388e-12
0.01005066
2.020325e-12
2.717636e-12
0.01087091
1.970322e-12
2.84007e-12
0.01173918
1.939656e-12
2.964998e-12
0.01265777
1.911636e-12
3.094224e-12
0.01362914
1.871698e-12
3.227523e-12
0.01465594
1.82796e-12
3.339015e-12
0.015741
1.77735e-12
3.412995e-12
0.01688735
1.718943e-12
3.442586e-12
0.01809822
1.656659e-12
3.423311e-12
0.01937705
1.592957e-12
3.356979e-12
0.0207275
1.535773e-12
3.252744e-12
0.02215345
1.503485e-12
3.116739e-12
0.02365898
1.530105e-12
2.943607e-12
0.02524842
1.670019e-12
2.707869e-12
0.02692632
1.917687e-12
2.436007e-12
0.02869743
2.185996e-12
2.224028e-12
0.03056676
2.421582e-12
2.124913e-12
0.03253952
2.549257e-12
2.199005e-12
0.03462114
2.542144e-12
2.444037e-12
0.03681725
2.626508e-12
2.599304e-12
0.03913369
2.852644e-12
2.576879e-12
0.04157645
3.027212e-12
2.537591e-12
0.0441517
3.158908e-12
2.451247e-12
0.04686574
3.045624e-12
2.501254e-12
0.049725
2.614592e-12
2.751026e-12
0.05273597
2.2603e-12
2.81356e-12
0.05590524
2.194078e-12
2.493499e-12
0.05923943
2.214739e-12
2.03764e-12
0.06274522
1.979432e-12
1.863152e-12
0.06642932
1.565048e-12
1.956876e-12
0.07029848
1.562311e-12
1.713281e-12
0.07435955
2.042242e-12
9.987609e-13
0.07861934
2.228483e-12
5.446218e-13
0.08308449
1.760752e-12
6.294155e-13
0.08776059
1.101556e-12
9.05485e-13
0.09265108
7.917024e-13
9.90718e-13
0.09775692
9.828248e-13
1.145819e-12
0.1030779
8.241418e-13
3.992912e-13
0.1086134
3.093735e-13
4.851222e-13
0.1143612
2.60197e-13
3.146466e-13
0.1203158
)
;

boundaryField
{
    leftandright
    {
        type            cyclic;
        value           nonuniform List<scalar> 
150
(
-1.499716e-05
-4.805534e-05
-8.61401e-05
-0.0001298483
-0.0001798383
-0.0002368338
-0.0003016267
-0.0003750794
-0.0004581255
-0.0005517707
-0.0006570917
-0.0007752367
-0.0009074262
-0.001054956
-0.001219201
-0.001401626
-0.001603789
-0.001827355
-0.002073693
-0.00234366
-0.002638232
-0.002958654
-0.003306158
-0.003681973
-0.004087321
-0.004523428
-0.00499153
-0.005492887
-0.006028794
-0.006600595
-0.007209705
-0.007857616
-0.008545921
-0.009276326
-0.01005066
-0.01087091
-0.01173918
-0.01265777
-0.01362914
-0.01465594
-0.015741
-0.01688735
-0.01809822
-0.01937705
-0.0207275
-0.02215345
-0.02365898
-0.02524842
-0.02692632
-0.02869743
-0.03056676
-0.03253952
-0.03462114
-0.03681725
-0.03913369
-0.04157645
-0.0441517
-0.04686574
-0.049725
-0.05273597
-0.05590524
-0.05923943
-0.06274522
-0.06642932
-0.07029848
-0.07435955
-0.07861934
-0.08308449
-0.08776059
-0.09265108
-0.09775692
-0.1030779
-0.1086134
-0.1143612
-0.1203158
1.499716e-05
4.805534e-05
8.61401e-05
0.0001298483
0.0001798383
0.0002368338
0.0003016267
0.0003750794
0.0004581255
0.0005517707
0.0006570917
0.0007752367
0.0009074262
0.001054956
0.001219201
0.001401626
0.001603789
0.001827355
0.002073693
0.00234366
0.002638232
0.002958654
0.003306158
0.003681973
0.004087321
0.004523428
0.00499153
0.005492887
0.006028794
0.006600595
0.007209705
0.007857616
0.008545921
0.009276326
0.01005066
0.01087091
0.01173918
0.01265777
0.01362914
0.01465594
0.015741
0.01688735
0.01809822
0.01937705
0.0207275
0.02215345
0.02365898
0.02524842
0.02692632
0.02869743
0.03056676
0.03253952
0.03462114
0.03681725
0.03913369
0.04157645
0.0441517
0.04686574
0.049725
0.05273597
0.05590524
0.05923943
0.06274522
0.06642932
0.07029848
0.07435955
0.07861934
0.08308449
0.08776059
0.09265108
0.09775692
0.1030779
0.1086134
0.1143612
0.1203158
)
;
    }
    wall
    {
        type            calculated;
        value           uniform 0;
    }
    frontAndBack
    {
        type            empty;
    }
    middle
    {
        type            symmetryPlane;
        value           uniform 0;
    }
}


// ************************************************************************* //
