/*--------------------------------*- C++ -*----------------------------------*\
| =========                 |                                                 |
| \\      /  F ield         | foam-extend: Open Source CFD                    |
|  \\    /   O peration     | Version:     4.0                                |
|   \\  /    A nd           | Web:         http://www.foam-extend.org         |
|    \\/     M anipulation  |                                                 |
\*---------------------------------------------------------------------------*/
FoamFile
{
    version     2.0;
    format      ascii;
    class       volScalarField;
    location    "100";
    object      QR;
}
// * * * * * * * * * * * * * * * * * * * * * * * * * * * * * * * * * * * * * //

dimensions      [0 0 -1 0 0 0 0];

internalField   nonuniform List<scalar> 
150
(
193.2883
193.2884
193.0327
193.0327
192.7581
192.7581
192.4532
192.4532
192.1011
192.1011
191.6793
191.6793
191.1587
191.1587
190.5047
190.5047
189.6786
189.6786
188.6403
188.6403
187.3521
187.3521
185.7826
185.7826
183.9108
183.9108
181.7281
181.7281
179.2388
179.2388
176.4586
176.4586
173.4123
173.4123
169.9048
169.9048
165.4999
165.4999
160.1439
160.1439
154.2047
154.2047
147.9129
147.9129
141.342
141.342
134.5662
134.5662
127.6585
127.6585
120.6894
120.6894
113.7262
113.7262
106.8315
106.8315
100.0622
100.0622
93.46846
93.46846
87.09296
87.09296
80.97064
80.97064
75.12861
75.12862
69.58641
69.58641
64.35648
64.35648
59.44488
59.44488
54.85203
54.85204
50.57362
50.57362
46.60138
46.60139
42.92402
42.92402
39.52789
39.52789
36.39774
36.39774
33.51731
33.51731
30.8698
30.8698
28.43833
28.43833
26.20621
26.20621
24.15724
24.15724
22.27587
22.27587
20.5473
20.5473
18.9576
18.9576
17.49376
17.49376
16.14363
16.14363
14.89603
14.89603
13.74064
13.74064
12.66804
12.66804
11.66965
11.66965
10.73776
10.73776
9.865473
9.865473
9.046725
9.046725
8.276283
8.276283
7.549737
7.549737
6.8635
6.8635
6.214778
6.214778
5.601493
5.601493
5.022126
5.022126
4.47529
4.47529
3.958714
3.958714
3.466792
3.466792
2.989222
2.989222
2.515328
2.515328
2.042567
2.042567
1.576447
1.576447
1.123251
1.123251
0.6856834
0.6856833
0.2362
0.2361999
)
;

boundaryField
{
    leftandright
    {
        type            cyclic;
        value           nonuniform List<scalar> 
150
(
193.2883
193.0327
192.7581
192.4532
192.1011
191.6793
191.1587
190.5047
189.6786
188.6403
187.3521
185.7826
183.9108
181.7281
179.2388
176.4586
173.4123
169.9048
165.4999
160.1439
154.2047
147.9129
141.342
134.5662
127.6585
120.6894
113.7262
106.8315
100.0622
93.46846
87.09296
80.97064
75.12861
69.58641
64.35648
59.44488
54.85204
50.57362
46.60139
42.92402
39.52789
36.39774
33.51731
30.8698
28.43833
26.20621
24.15724
22.27587
20.5473
18.9576
17.49376
16.14363
14.89603
13.74064
12.66804
11.66965
10.73776
9.865473
9.046725
8.276283
7.549737
6.8635
6.214778
5.601493
5.022126
4.47529
3.958714
3.466792
2.989222
2.515328
2.042567
1.576447
1.123251
0.6856834
0.2362
193.2883
193.0327
192.7581
192.4532
192.1011
191.6793
191.1587
190.5047
189.6786
188.6403
187.3521
185.7826
183.9108
181.7281
179.2388
176.4586
173.4123
169.9048
165.4999
160.1439
154.2047
147.9129
141.342
134.5662
127.6585
120.6894
113.7262
106.8315
100.0622
93.46846
87.09296
80.97064
75.12861
69.58641
64.35648
59.44488
54.85204
50.57362
46.60139
42.92402
39.52789
36.39774
33.51731
30.8698
28.43833
26.20621
24.15724
22.27587
20.5473
18.9576
17.49376
16.14363
14.89603
13.74064
12.66804
11.66965
10.73776
9.865473
9.046725
8.276283
7.549737
6.8635
6.214778
5.601493
5.022126
4.47529
3.958714
3.466792
2.989222
2.515328
2.042567
1.576447
1.123251
0.6856834
0.2362
)
;
    }
    wall
    {
        type            calculated;
        value           nonuniform List<scalar> 2(193.4125 193.4126);
    }
    frontAndBack
    {
        type            empty;
    }
    middle
    {
        type            symmetryPlane;
        value           nonuniform List<scalar> 2(0.643163 0.643163);
    }
}


// ************************************************************************* //
