/*--------------------------------*- C++ -*----------------------------------*\
| =========                 |                                                 |
| \\      /  F ield         | foam-extend: Open Source CFD                    |
|  \\    /   O peration     | Version:     4.0                                |
|   \\  /    A nd           | Web:         http://www.foam-extend.org         |
|    \\/     M anipulation  |                                                 |
\*---------------------------------------------------------------------------*/
FoamFile
{
    version     2.0;
    format      ascii;
    class       volSymmTensorField;
    location    "100";
    object      RStress;
}
// * * * * * * * * * * * * * * * * * * * * * * * * * * * * * * * * * * * * * //

dimensions      [0 2 -2 0 0 0 0];

internalField   nonuniform List<symmTensor> 
150
(
(0.001861114 -1.255304e-07 0 3.21515e-08 0 3.499346e-05)
(0.001861114 -1.255304e-07 0 3.21515e-08 0 3.499368e-05)
(0.02049095 -6.544026e-06 0 1.630287e-06 0 0.000385436)
(0.02049095 -6.544028e-06 0 1.630287e-06 0 0.0003854383)
(0.05550745 -4.358839e-05 0 1.056728e-05 0 0.001044807)
(0.05550744 -4.35884e-05 0 1.056728e-05 0 0.001044813)
(0.1083962 -0.0001599895 0 3.777798e-05 0 0.002042135)
(0.1083962 -0.0001599896 0 3.777798e-05 0 0.002042145)
(0.1805139 -0.000433171 0 9.976169e-05 0 0.003639624)
(0.1805139 -0.0004331711 0 9.97617e-05 0 0.003639624)
(0.2728039 -0.0009723875 0 0.0002188636 0 0.006614841)
(0.2728039 -0.0009723876 0 0.0002188636 0 0.006614841)
(0.3871036 -0.001919498 0 0.000423394 0 0.01093981)
(0.3871036 -0.001919498 0 0.000423394 0 0.01093981)
(0.5249971 -0.003445921 0 0.0007475531 0 0.01689934)
(0.5249971 -0.003445921 0 0.0007475532 0 0.01689934)
(0.6880707 -0.005744329 0 0.001231136 0 0.02478664)
(0.6880707 -0.005744329 0 0.001231136 0 0.02478664)
(0.8778469 -0.009014295 0 0.001919002 0 0.03489835)
(0.8778469 -0.009014295 0 0.001919002 0 0.03489835)
(1.095701 -0.01344254 0 0.002860316 0 0.04752833)
(1.095701 -0.01344254 0 0.002860316 0 0.04752833)
(1.342764 -0.01918057 0 0.00410761 0 0.06296039)
(1.342764 -0.01918057 0 0.004107611 0 0.0629604)
(1.61983 -0.02632433 0 0.005715731 0 0.08146061)
(1.61983 -0.02632433 0 0.005715731 0 0.08146062)
(1.927279 -0.0349013 0 0.007740777 0 0.1032701)
(1.927279 -0.0349013 0 0.007740778 0 0.1032701)
(2.265028 -0.04486849 0 0.01023915 0 0.1285994)
(2.265028 -0.04486849 0 0.01023915 0 0.1285994)
(2.632529 -0.0561217 0 0.01326683 0 0.157625)
(2.632529 -0.0561217 0 0.01326684 0 0.157625)
(3.028813 -0.06851281 0 0.01687887 0 0.1904886)
(3.028814 -0.06851281 0 0.01687887 0 0.1904886)
(3.452583 -0.08176095 0 0.02112898 0 0.2273004)
(3.452583 -0.08176095 0 0.02112898 0 0.2273005)
(3.901232 -0.1004187 0 0.02605675 0 0.2680396)
(3.901232 -0.1004187 0 0.02605675 0 0.2680396)
(4.368206 -0.1246371 0 0.0316781 0 0.3124168)
(4.368206 -0.1246371 0 0.0316781 0 0.3124168)
(4.844876 -0.1506109 0 0.03800439 0 0.3600282)
(4.844876 -0.150611 0 0.03800439 0 0.3600282)
(5.322914 -0.1780444 0 0.04504755 0 0.410459)
(5.322915 -0.1780444 0 0.04504756 0 0.410459)
(5.793698 -0.2065441 0 0.05281006 0 0.4632115)
(5.793698 -0.2065441 0 0.05281006 0 0.4632116)
(6.248681 -0.2357203 0 0.06128413 0 0.517719)
(6.248681 -0.2357203 0 0.06128414 0 0.517719)
(6.679752 -0.2651891 0 0.07045102 0 0.5733627)
(6.679753 -0.2651891 0 0.07045103 0 0.5733627)
(7.079562 -0.2945773 0 0.08028095 0 0.6294919)
(7.079562 -0.2945773 0 0.08028096 0 0.6294919)
(7.44179 -0.3235287 0 0.09073351 0 0.6854456)
(7.44179 -0.3235287 0 0.09073352 0 0.6854457)
(7.761342 -0.3517114 0 0.1017585 0 0.7405739)
(7.761342 -0.3517114 0 0.1017585 0 0.7405739)
(8.034469 -0.3788246 0 0.113297 0 0.7942574)
(8.034469 -0.3788246 0 0.113297 0 0.7942574)
(8.258799 -0.4046048 0 0.1252828 0 0.845925)
(8.258799 -0.4046049 0 0.1252828 0 0.8459251)
(8.433298 -0.4288303 0 0.137644 0 0.8950671)
(8.433298 -0.4288303 0 0.137644 0 0.8950672)
(8.558167 -0.4513228 0 0.1503046 0 0.9412451)
(8.558167 -0.4513228 0 0.1503046 0 0.9412451)
(8.63469 -0.4719486 0 0.1631858 0 0.9840966)
(8.63469 -0.4719486 0 0.1631858 0 0.9840966)
(8.665052 -0.4906166 0 0.1762076 0 1.023337)
(8.665052 -0.4906166 0 0.1762076 0 1.023337)
(8.652144 -0.5072759 0 0.18929 0 1.058758)
(8.652144 -0.5072759 0 0.18929 0 1.058758)
(8.599368 -0.5219111 0 0.202354 0 1.090221)
(8.599368 -0.5219111 0 0.202354 0 1.090221)
(8.510457 -0.5345378 0 0.2153226 0 1.117654)
(8.510457 -0.5345379 0 0.2153226 0 1.117654)
(8.389308 -0.5451974 0 0.2281212 0 1.141041)
(8.389308 -0.5451974 0 0.2281213 0 1.141041)
(8.239847 -0.553951 0 0.2406788 0 1.160415)
(8.239847 -0.5539511 0 0.2406788 0 1.160415)
(8.065914 -0.5608753 0 0.2529275 0 1.175849)
(8.065914 -0.5608753 0 0.2529275 0 1.175849)
(7.871184 -0.5660568 0 0.2648035 0 1.18745)
(7.871184 -0.5660568 0 0.2648035 0 1.18745)
(7.659096 -0.5695879 0 0.2762471 0 1.195347)
(7.659096 -0.5695879 0 0.2762471 0 1.195347)
(7.432825 -0.5715634 0 0.2872028 0 1.199689)
(7.432825 -0.5715634 0 0.2872028 0 1.199689)
(7.19525 -0.572077 0 0.2976197 0 1.200639)
(7.19525 -0.572077 0 0.2976197 0 1.200639)
(6.948955 -0.5712193 0 0.3074513 0 1.198366)
(6.948955 -0.5712193 0 0.3074513 0 1.198366)
(6.696231 -0.5690757 0 0.3166562 0 1.193047)
(6.696231 -0.5690757 0 0.3166562 0 1.193047)
(6.439086 -0.5657249 0 0.3251976 0 1.184857)
(6.439086 -0.5657249 0 0.3251976 0 1.184857)
(6.17927 -0.5612385 0 0.3330442 0 1.173974)
(6.17927 -0.5612385 0 0.3330442 0 1.173974)
(5.918294 -0.5556802 0 0.3401703 0 1.160574)
(5.918294 -0.5556802 0 0.3401703 0 1.160574)
(5.657458 -0.5491059 0 0.346556 0 1.14483)
(5.657458 -0.5491059 0 0.346556 0 1.14483)
(5.397875 -0.5415635 0 0.3521879 0 1.126916)
(5.397876 -0.5415635 0 0.3521878 0 1.126916)
(5.140501 -0.5330936 0 0.3570594 0 1.107003)
(5.140501 -0.5330936 0 0.3570593 0 1.107003)
(4.886158 -0.52373 0 0.3611713 0 1.085262)
(4.886158 -0.52373 0 0.3611713 0 1.085262)
(4.635564 -0.5135001 0 0.3645324 0 1.061867)
(4.635564 -0.5135001 0 0.3645324 0 1.061867)
(4.389355 -0.502426 0 0.3671598 0 1.036994)
(4.389356 -0.502426 0 0.3671598 0 1.036994)
(4.148112 -0.490525 0 0.3690795 0 1.010821)
(4.148112 -0.490525 0 0.3690795 0 1.010821)
(3.912378 -0.4778106 0 0.3703262 0 0.9835363)
(3.912378 -0.4778105 0 0.3703262 0 0.9835363)
(3.682682 -0.4642928 0 0.3709436 0 0.9553319)
(3.682682 -0.4642928 0 0.3709436 0 0.9553319)
(3.459554 -0.4499793 0 0.3709831 0 0.9264093)
(3.459554 -0.4499793 0 0.3709831 0 0.9264093)
(3.24354 -0.4348749 0 0.3705028 0 0.896978)
(3.24354 -0.4348749 0 0.3705028 0 0.896978)
(3.035209 -0.4189819 0 0.3695645 0 0.8672541)
(3.035209 -0.4189819 0 0.3695645 0 0.8672541)
(2.83516 -0.4022987 0 0.3682301 0 0.8374581)
(2.83516 -0.4022987 0 0.3682301 0 0.8374581)
(2.64402 -0.3848178 0 0.3665558 0 0.8078103)
(2.64402 -0.3848178 0 0.3665558 0 0.8078103)
(2.462435 -0.3665216 0 0.3645855 0 0.7785243)
(2.462435 -0.3665216 0 0.3645855 0 0.7785243)
(2.291059 -0.3473727 0 0.3623381 0 0.7497985)
(2.291059 -0.3473727 0 0.3623381 0 0.7497985)
(2.130547 -0.3272856 0 0.359809 0 0.7218063)
(2.130547 -0.3272855 0 0.359809 0 0.7218063)
(1.981546 -0.3060467 0 0.3569103 0 0.6946855)
(1.981546 -0.3060467 0 0.3569103 0 0.6946855)
(1.844734 -0.2830957 0 0.3535699 0 0.6685317)
(1.844734 -0.2830957 0 0.3535699 0 0.6685317)
(1.720924 -0.2573359 0 0.3492824 0 0.6434038)
(1.720924 -0.2573359 0 0.3492824 0 0.6434038)
(1.611319 -0.227436 0 0.3447226 0 0.6193551)
(1.611319 -0.227436 0 0.3447226 0 0.6193551)
(1.516865 -0.1930452 0 0.33714 0 0.596874)
(1.516865 -0.1930452 0 0.33714 0 0.596874)
(1.438177 -0.1549295 0 0.3363064 0 0.57696)
(1.438177 -0.1549295 0 0.3363064 0 0.57696)
(1.376393 -0.1138306 0 0.3155894 0 0.5606061)
(1.376393 -0.1138306 0 0.3155894 0 0.5606061)
(1.333029 -0.07011248 0 0.3419689 0 0.5487671)
(1.333029 -0.07011247 0 0.3419689 0 0.5487671)
(1.310004 -0.0238141 0 0.3100809 0 0.5423602)
(1.310004 -0.02381408 0 0.3100809 0 0.5423602)
)
;

boundaryField
{
    leftandright
    {
        type            cyclic;
        value           nonuniform List<symmTensor> 
150
(
(0.001861114 -1.255304e-07 0 3.21515e-08 0 3.499357e-05)
(0.02049095 -6.544027e-06 0 1.630287e-06 0 0.0003854371)
(0.05550745 -4.35884e-05 0 1.056728e-05 0 0.00104481)
(0.1083962 -0.0001599895 0 3.777798e-05 0 0.00204214)
(0.1805139 -0.0004331711 0 9.976169e-05 0 0.003639624)
(0.2728039 -0.0009723876 0 0.0002188636 0 0.006614841)
(0.3871036 -0.001919498 0 0.000423394 0 0.01093981)
(0.5249971 -0.003445921 0 0.0007475532 0 0.01689934)
(0.6880707 -0.005744329 0 0.001231136 0 0.02478664)
(0.8778469 -0.009014295 0 0.001919002 0 0.03489835)
(1.095701 -0.01344254 0 0.002860316 0 0.04752833)
(1.342764 -0.01918057 0 0.004107611 0 0.0629604)
(1.61983 -0.02632433 0 0.005715731 0 0.08146061)
(1.927279 -0.0349013 0 0.007740777 0 0.1032701)
(2.265028 -0.04486849 0 0.01023915 0 0.1285994)
(2.632529 -0.0561217 0 0.01326684 0 0.157625)
(3.028814 -0.06851281 0 0.01687887 0 0.1904886)
(3.452583 -0.08176095 0 0.02112898 0 0.2273004)
(3.901232 -0.1004187 0 0.02605675 0 0.2680396)
(4.368206 -0.1246371 0 0.0316781 0 0.3124168)
(4.844876 -0.150611 0 0.03800439 0 0.3600282)
(5.322915 -0.1780444 0 0.04504755 0 0.410459)
(5.793698 -0.2065441 0 0.05281006 0 0.4632116)
(6.248681 -0.2357203 0 0.06128414 0 0.517719)
(6.679753 -0.2651891 0 0.07045102 0 0.5733627)
(7.079562 -0.2945773 0 0.08028095 0 0.6294919)
(7.44179 -0.3235287 0 0.09073351 0 0.6854457)
(7.761342 -0.3517114 0 0.1017585 0 0.7405739)
(8.034469 -0.3788246 0 0.113297 0 0.7942574)
(8.258799 -0.4046049 0 0.1252828 0 0.845925)
(8.433298 -0.4288303 0 0.137644 0 0.8950672)
(8.558167 -0.4513228 0 0.1503046 0 0.9412451)
(8.63469 -0.4719486 0 0.1631858 0 0.9840966)
(8.665052 -0.4906166 0 0.1762076 0 1.023337)
(8.652144 -0.5072759 0 0.18929 0 1.058758)
(8.599368 -0.5219111 0 0.202354 0 1.090221)
(8.510457 -0.5345379 0 0.2153226 0 1.117654)
(8.389308 -0.5451974 0 0.2281213 0 1.141041)
(8.239847 -0.553951 0 0.2406788 0 1.160415)
(8.065914 -0.5608753 0 0.2529275 0 1.175849)
(7.871184 -0.5660568 0 0.2648035 0 1.18745)
(7.659096 -0.5695879 0 0.2762471 0 1.195347)
(7.432825 -0.5715634 0 0.2872028 0 1.199689)
(7.19525 -0.572077 0 0.2976197 0 1.200639)
(6.948955 -0.5712193 0 0.3074513 0 1.198366)
(6.696231 -0.5690757 0 0.3166562 0 1.193047)
(6.439086 -0.5657249 0 0.3251976 0 1.184857)
(6.17927 -0.5612385 0 0.3330442 0 1.173974)
(5.918294 -0.5556802 0 0.3401703 0 1.160574)
(5.657458 -0.5491059 0 0.346556 0 1.14483)
(5.397875 -0.5415635 0 0.3521879 0 1.126916)
(5.140501 -0.5330936 0 0.3570593 0 1.107003)
(4.886158 -0.52373 0 0.3611713 0 1.085262)
(4.635564 -0.5135001 0 0.3645324 0 1.061867)
(4.389356 -0.502426 0 0.3671598 0 1.036994)
(4.148112 -0.490525 0 0.3690795 0 1.010821)
(3.912378 -0.4778106 0 0.3703262 0 0.9835363)
(3.682682 -0.4642928 0 0.3709436 0 0.9553319)
(3.459554 -0.4499793 0 0.3709831 0 0.9264093)
(3.24354 -0.4348749 0 0.3705028 0 0.896978)
(3.035209 -0.4189819 0 0.3695645 0 0.8672541)
(2.83516 -0.4022987 0 0.3682301 0 0.8374581)
(2.64402 -0.3848178 0 0.3665558 0 0.8078103)
(2.462435 -0.3665216 0 0.3645855 0 0.7785243)
(2.291059 -0.3473727 0 0.3623381 0 0.7497985)
(2.130547 -0.3272855 0 0.359809 0 0.7218063)
(1.981546 -0.3060467 0 0.3569103 0 0.6946855)
(1.844734 -0.2830957 0 0.3535699 0 0.6685317)
(1.720924 -0.2573359 0 0.3492824 0 0.6434038)
(1.611319 -0.227436 0 0.3447226 0 0.6193551)
(1.516865 -0.1930452 0 0.33714 0 0.596874)
(1.438177 -0.1549295 0 0.3363064 0 0.57696)
(1.376393 -0.1138306 0 0.3155894 0 0.5606061)
(1.333029 -0.07011247 0 0.3419689 0 0.5487671)
(1.310004 -0.02381409 0 0.3100809 0 0.5423602)
(0.001861114 -1.255304e-07 0 3.21515e-08 0 3.499357e-05)
(0.02049095 -6.544027e-06 0 1.630287e-06 0 0.0003854371)
(0.05550745 -4.35884e-05 0 1.056728e-05 0 0.00104481)
(0.1083962 -0.0001599895 0 3.777798e-05 0 0.00204214)
(0.1805139 -0.0004331711 0 9.976169e-05 0 0.003639624)
(0.2728039 -0.0009723876 0 0.0002188636 0 0.006614841)
(0.3871036 -0.001919498 0 0.000423394 0 0.01093981)
(0.5249971 -0.003445921 0 0.0007475532 0 0.01689934)
(0.6880707 -0.005744329 0 0.001231136 0 0.02478664)
(0.8778469 -0.009014295 0 0.001919002 0 0.03489835)
(1.095701 -0.01344254 0 0.002860316 0 0.04752833)
(1.342764 -0.01918057 0 0.004107611 0 0.0629604)
(1.61983 -0.02632433 0 0.005715731 0 0.08146061)
(1.927279 -0.0349013 0 0.007740777 0 0.1032701)
(2.265028 -0.04486849 0 0.01023915 0 0.1285994)
(2.632529 -0.0561217 0 0.01326684 0 0.157625)
(3.028814 -0.06851281 0 0.01687887 0 0.1904886)
(3.452583 -0.08176095 0 0.02112898 0 0.2273004)
(3.901232 -0.1004187 0 0.02605675 0 0.2680396)
(4.368206 -0.1246371 0 0.0316781 0 0.3124168)
(4.844876 -0.150611 0 0.03800439 0 0.3600282)
(5.322915 -0.1780444 0 0.04504755 0 0.410459)
(5.793698 -0.2065441 0 0.05281006 0 0.4632116)
(6.248681 -0.2357203 0 0.06128414 0 0.517719)
(6.679753 -0.2651891 0 0.07045102 0 0.5733627)
(7.079562 -0.2945773 0 0.08028095 0 0.6294919)
(7.44179 -0.3235287 0 0.09073351 0 0.6854457)
(7.761342 -0.3517114 0 0.1017585 0 0.7405739)
(8.034469 -0.3788246 0 0.113297 0 0.7942574)
(8.258799 -0.4046049 0 0.1252828 0 0.845925)
(8.433298 -0.4288303 0 0.137644 0 0.8950672)
(8.558167 -0.4513228 0 0.1503046 0 0.9412451)
(8.63469 -0.4719486 0 0.1631858 0 0.9840966)
(8.665052 -0.4906166 0 0.1762076 0 1.023337)
(8.652144 -0.5072759 0 0.18929 0 1.058758)
(8.599368 -0.5219111 0 0.202354 0 1.090221)
(8.510457 -0.5345379 0 0.2153226 0 1.117654)
(8.389308 -0.5451974 0 0.2281213 0 1.141041)
(8.239847 -0.553951 0 0.2406788 0 1.160415)
(8.065914 -0.5608753 0 0.2529275 0 1.175849)
(7.871184 -0.5660568 0 0.2648035 0 1.18745)
(7.659096 -0.5695879 0 0.2762471 0 1.195347)
(7.432825 -0.5715634 0 0.2872028 0 1.199689)
(7.19525 -0.572077 0 0.2976197 0 1.200639)
(6.948955 -0.5712193 0 0.3074513 0 1.198366)
(6.696231 -0.5690757 0 0.3166562 0 1.193047)
(6.439086 -0.5657249 0 0.3251976 0 1.184857)
(6.17927 -0.5612385 0 0.3330442 0 1.173974)
(5.918294 -0.5556802 0 0.3401703 0 1.160574)
(5.657458 -0.5491059 0 0.346556 0 1.14483)
(5.397875 -0.5415635 0 0.3521879 0 1.126916)
(5.140501 -0.5330936 0 0.3570593 0 1.107003)
(4.886158 -0.52373 0 0.3611713 0 1.085262)
(4.635564 -0.5135001 0 0.3645324 0 1.061867)
(4.389356 -0.502426 0 0.3671598 0 1.036994)
(4.148112 -0.490525 0 0.3690795 0 1.010821)
(3.912378 -0.4778106 0 0.3703262 0 0.9835363)
(3.682682 -0.4642928 0 0.3709436 0 0.9553319)
(3.459554 -0.4499793 0 0.3709831 0 0.9264093)
(3.24354 -0.4348749 0 0.3705028 0 0.896978)
(3.035209 -0.4189819 0 0.3695645 0 0.8672541)
(2.83516 -0.4022987 0 0.3682301 0 0.8374581)
(2.64402 -0.3848178 0 0.3665558 0 0.8078103)
(2.462435 -0.3665216 0 0.3645855 0 0.7785243)
(2.291059 -0.3473727 0 0.3623381 0 0.7497985)
(2.130547 -0.3272855 0 0.359809 0 0.7218063)
(1.981546 -0.3060467 0 0.3569103 0 0.6946855)
(1.844734 -0.2830957 0 0.3535699 0 0.6685317)
(1.720924 -0.2573359 0 0.3492824 0 0.6434038)
(1.611319 -0.227436 0 0.3447226 0 0.6193551)
(1.516865 -0.1930452 0 0.33714 0 0.596874)
(1.438177 -0.1549295 0 0.3363064 0 0.57696)
(1.376393 -0.1138306 0 0.3155894 0 0.5606061)
(1.333029 -0.07011247 0 0.3419689 0 0.5487671)
(1.310004 -0.02381409 0 0.3100809 0 0.5423602)
)
;
    }
    wall
    {
        type            calculated;
        value           nonuniform List<symmTensor> 2((3.333333e-11 -3.848126e-10 0 9.999959e-11 0 6.666667e-11) (3.333333e-11 -3.848126e-10 0 9.999959e-11 0 6.666667e-11));
    }
    frontAndBack
    {
        type            empty;
    }
    middle
    {
        type            symmetryPlane;
        value           nonuniform List<symmTensor> 2((1.310004 0 0 0.4463316 0 0.5423602) (1.310004 0 0 0.4463316 0 0.5423602));
    }
}


// ************************************************************************* //
