/*--------------------------------*- C++ -*----------------------------------*\
| =========                 |                                                 |
| \\      /  F ield         | foam-extend: Open Source CFD                    |
|  \\    /   O peration     | Version:     4.0                                |
|   \\  /    A nd           | Web:         http://www.foam-extend.org         |
|    \\/     M anipulation  |                                                 |
\*---------------------------------------------------------------------------*/
FoamFile
{
    version     2.0;
    format      ascii;
    class       volSymmTensorField;
    location    "100";
    object      tauP;
}
// * * * * * * * * * * * * * * * * * * * * * * * * * * * * * * * * * * * * * //

dimensions      [0 2 -2 0 0 0 0];

internalField   nonuniform List<symmTensor> 
150
(
(2.090494 0.03240226 0 2.646396e-06 0 2.112388e-06)
(2.090473 0.03240179 0 2.636386e-06 0 2.110144e-06)
(2.089321 0.03238956 0 2.501151e-06 0 1.920383e-06)
(2.0893 0.03238908 0 2.490834e-06 0 1.917956e-06)
(2.087379 0.032371 0 2.370021e-06 0 1.683906e-06)
(2.08736 0.03237054 0 2.360123e-06 0 1.681555e-06)
(2.08489 0.03235058 0 2.352311e-06 0 1.481259e-06)
(2.084872 0.03235016 0 2.343391e-06 0 1.479143e-06)
(2.081936 0.03233039 0 2.515606e-06 0 1.345807e-06)
(2.081921 0.03233003 0 2.508041e-06 0 1.344016e-06)
(2.078488 0.03231111 0 2.915606e-06 0 1.278949e-06)
(2.078476 0.03231082 0 2.909577e-06 0 1.27752e-06)
(2.074427 0.03229257 0 3.6154e-06 0 1.26123e-06)
(2.074418 0.03229235 0 3.610903e-06 0 1.260153e-06)
(2.069571 0.03227431 0 4.704265e-06 0 1.261757e-06)
(2.069565 0.03227416 0 4.701147e-06 0 1.260992e-06)
(2.063716 0.03225618 0 6.315229e-06 0 1.246295e-06)
(2.063712 0.03225608 0 6.313253e-06 0 1.245787e-06)
(2.056664 0.03223891 0 8.64019e-06 0 1.184414e-06)
(2.056662 0.03223885 0 8.63911e-06 0 1.18411e-06)
(2.048276 0.03222473 0 1.194121e-05 0 1.055959e-06)
(2.048275 0.0322247 0 1.194082e-05 0 1.055817e-06)
(2.038507 0.0322179 0 1.65574e-05 0 8.570125e-07)
(2.038507 0.0322179 0 1.655758e-05 0 8.570063e-07)
(2.027446 0.03222522 0 2.290935e-05 0 6.057744e-07)
(2.027447 0.03222524 0 2.291002e-05 0 6.058872e-07)
(2.01534 0.03225645 0 3.150698e-05 0 3.493759e-07)
(2.015342 0.03225649 0 3.150813e-05 0 3.495983e-07)
(2.002588 0.03232477 0 4.297253e-05 0 1.722713e-07)
(2.002591 0.03232484 0 4.297415e-05 0 1.725976e-07)
(1.989664 0.03244676 0 5.809165e-05 0 1.987681e-07)
(1.989667 0.03244684 0 5.809376e-05 0 1.991948e-07)
(1.976794 0.03263957 0 7.78843e-05 0 5.406632e-07)
(1.976797 0.03263966 0 7.78869e-05 0 5.411851e-07)
(1.962816 0.03290457 0 0.0001035146 0 9.715698e-07)
(1.962819 0.03290468 0 0.0001035177 0 9.721673e-07)
(1.945503 0.03322912 0 0.0001369041 0 9.651899e-07)
(1.945507 0.03322924 0 0.0001369076 0 9.65822e-07)
(1.924412 0.03362208 0 0.0001798813 0 4.212115e-07)
(1.924415 0.0336222 0 0.0001798851 0 4.218288e-07)
(1.901587 0.03412206 0 0.0002338013 0 -1.946347e-07)
(1.90159 0.03412218 0 0.0002338053 0 -1.940816e-07)
(1.878913 0.03476246 0 0.0003004714 0 -5.677843e-07)
(1.878915 0.03476257 0 0.0003004753 0 -5.67341e-07)
(1.857013 0.03555755 0 0.0003817383 0 -7.353988e-07)
(1.857015 0.03555765 0 0.0003817422 0 -7.350367e-07)
(1.836095 0.03651738 0 0.0004798013 0 -7.797152e-07)
(1.836097 0.03651747 0 0.0004798051 0 -7.793733e-07)
(1.816244 0.03765211 0 0.0005973153 0 -7.557637e-07)
(1.816245 0.0376522 0 0.000597319 0 -7.554131e-07)
(1.797487 0.03897206 0 0.0007374109 0 -6.919309e-07)
(1.797489 0.03897214 0 0.0007374146 0 -6.915537e-07)
(1.779791 0.04048657 0 0.0009036875 0 -6.027647e-07)
(1.779792 0.04048664 0 0.000903691 0 -6.023523e-07)
(1.763047 0.04220272 0 0.001100192 0 -4.978784e-07)
(1.763048 0.04220279 0 0.001100196 0 -4.974175e-07)
(1.74707 0.04412423 0 0.001331383 0 -3.855035e-07)
(1.747071 0.0441243 0 0.001331387 0 -3.84965e-07)
(1.731601 0.04625043 0 0.001602064 0 -2.734518e-07)
(1.731602 0.0462505 0 0.001602067 0 -2.728798e-07)
(1.716322 0.04857555 0 0.00191729 0 -1.686778e-07)
(1.716323 0.04857561 0 0.001917293 0 -1.681218e-07)
(1.700879 0.05108824 0 0.002282246 0 -7.669021e-08)
(1.70088 0.05108829 0 0.00228225 0 -7.604869e-08)
(1.684904 0.05377145 0 0.002702096 0 -4.436206e-10)
(1.684905 0.05377148 0 0.002702099 0 6.21568e-11)
(1.668037 0.05660247 0 0.003181798 0 5.855274e-08)
(1.668039 0.05660252 0 0.003181802 0 5.904429e-08)
(1.649952 0.05955352 0 0.003725927 0 1.005257e-07)
(1.649954 0.05955358 0 0.003725931 0 1.010545e-07)
(1.630369 0.06259243 0 0.004338464 0 1.276484e-07)
(1.630371 0.06259249 0 0.004338468 0 1.281503e-07)
(1.609067 0.06568348 0 0.005022607 0 1.424239e-07)
(1.609068 0.06568354 0 0.005022612 0 1.428929e-07)
(1.585886 0.0687886 0 0.005780593 0 1.479366e-07)
(1.585887 0.06878866 0 0.005780599 0 1.483049e-07)
(1.56073 0.07186821 0 0.006613515 0 1.466597e-07)
(1.560731 0.07186825 0 0.006613519 0 1.46953e-07)
(1.533557 0.07488238 0 0.007521191 0 1.413698e-07)
(1.533558 0.07488245 0 0.007521199 0 1.418501e-07)
(1.504374 0.07779166 0 0.008502041 0 1.341408e-07)
(1.504375 0.07779173 0 0.008502048 0 1.346826e-07)
(1.473226 0.08055785 0 0.009552999 0 1.261831e-07)
(1.473228 0.08055793 0 0.00955301 0 1.270691e-07)
(1.440187 0.08314467 0 0.01066946 0 1.193157e-07)
(1.440188 0.08314476 0 0.01066948 0 1.200188e-07)
(1.405347 0.08551812 0 0.01184526 0 1.13705e-07)
(1.405349 0.08551824 0 0.01184527 0 1.146477e-07)
(1.368806 0.08764686 0 0.01307264 0 1.097907e-07)
(1.368808 0.08764697 0 0.01307266 0 1.107836e-07)
(1.330668 0.08950234 0 0.01434234 0 1.080434e-07)
(1.33067 0.08950246 0 0.01434236 0 1.091257e-07)
(1.291027 0.09105871 0 0.01564356 0 1.083254e-07)
(1.291029 0.09105884 0 0.01564358 0 1.096433e-07)
(1.249971 0.09229284 0 0.01696408 0 1.108367e-07)
(1.249973 0.09229299 0 0.01696411 0 1.123111e-07)
(1.207572 0.09318395 0 0.01829029 0 1.152635e-07)
(1.207574 0.09318411 0 0.01829032 0 1.167577e-07)
(1.163887 0.09371335 0 0.01960723 0 1.220697e-07)
(1.163889 0.0937135 0 0.01960726 0 1.233658e-07)
(1.118952 0.09386393 0 0.02089861 0 1.307621e-07)
(1.118954 0.09386404 0 0.02089864 0 1.317653e-07)
(1.072786 0.09361961 0 0.02214681 0 1.414396e-07)
(1.072787 0.09361971 0 0.02214683 0 1.424922e-07)
(1.025385 0.09296485 0 0.02333275 0 1.543959e-07)
(1.025385 0.09296492 0 0.02333277 0 1.551857e-07)
(0.9767251 0.09188389 0 0.02443575 0 1.69468e-07)
(0.9767258 0.09188395 0 0.02443577 0 1.70123e-07)
(0.9267645 0.09036006 0 0.0254332 0 1.874029e-07)
(0.926765 0.0903601 0 0.02543323 0 1.877683e-07)
(0.8754412 0.08837497 0 0.02630013 0 2.08106e-07)
(0.8754417 0.08837502 0 0.02630014 0 2.083721e-07)
(0.8226768 0.08590788 0 0.02700849 0 2.324906e-07)
(0.8226771 0.08590793 0 0.02700852 0 2.325371e-07)
(0.7683788 0.08293488 0 0.02752638 0 2.612753e-07)
(0.7683791 0.08293491 0 0.02752638 0 2.612552e-07)
(0.7124443 0.07942832 0 0.02781675 0 2.956477e-07)
(0.7124445 0.07942834 0 0.02781676 0 2.955989e-07)
(0.6547637 0.07535641 0 0.02783606 0 3.367378e-07)
(0.654764 0.07535644 0 0.02783606 0 3.366725e-07)
(0.5952295 0.07068339 0 0.02753268 0 3.869754e-07)
(0.5952298 0.07068343 0 0.0275327 0 3.867833e-07)
(0.5337413 0.0653701 0 0.02684519 0 4.48235e-07)
(0.5337415 0.06537014 0 0.02684521 0 4.478991e-07)
(0.4702217 0.05937609 0 0.02570118 0 5.224814e-07)
(0.4702219 0.05937612 0 0.0257012 0 5.221491e-07)
(0.4046301 0.05266262 0 0.02401675 0 6.078675e-07)
(0.4046305 0.05266266 0 0.02401676 0 6.07533e-07)
(0.3370189 0.04520331 0 0.02170075 0 6.914183e-07)
(0.3370192 0.04520337 0 0.02170077 0 6.911385e-07)
(0.2676194 0.03699851 0 0.01866343 0 7.215408e-07)
(0.2676198 0.03699856 0 0.01866347 0 7.214506e-07)
(0.1973694 0.02816203 0 0.01487157 0 5.873495e-07)
(0.1973695 0.02816206 0 0.01487159 0 5.874324e-07)
(0.1289908 0.01907835 0 0.01045844 0 8.771507e-08)
(0.1289907 0.01907834 0 0.01045844 0 8.806369e-08)
(0.07036135 0.01095015 0 0.006113921 0 -5.798112e-07)
(0.07036118 0.01095013 0 0.006113907 0 -5.79286e-07)
(0.03112662 0.005287631 0 0.002861644 0 -8.067309e-07)
(0.03112652 0.005287618 0 0.002861635 0 -8.062155e-07)
(0.01309674 0.002607817 0 0.001288246 0 -3.905772e-07)
(0.01309672 0.002607813 0 0.001288245 0 -3.901645e-07)
(0.005231504 0.001314732 0 0.0004994322 0 -1.885931e-07)
(0.005231494 0.00131473 0 0.0004994307 0 -1.890043e-07)
(0.002571786 0.0008657019 0 0.0003552592 0 -1.291937e-08)
(0.002571778 0.0008656997 0 0.0003552567 0 -1.640127e-08)
(0.0005157379 0.0003475702 0 -4.388382e-05 0 -5.925352e-08)
(0.0005157403 0.0003475712 0 -4.388309e-05 0 -5.869484e-08)
(0.0001673707 0.0001377592 0 8.053637e-05 0 -6.004792e-09)
(0.0001673678 0.0001377586 0 8.053453e-05 0 -6.975054e-09)
)
;

boundaryField
{
    leftandright
    {
        type            cyclic;
        value           nonuniform List<symmTensor> 
150
(
(2.090484 0.03240202 0 2.641391e-06 0 2.111266e-06)
(2.089311 0.03238932 0 2.495993e-06 0 1.91917e-06)
(2.08737 0.03237077 0 2.365072e-06 0 1.682731e-06)
(2.084881 0.03235037 0 2.347851e-06 0 1.480201e-06)
(2.081929 0.03233021 0 2.511823e-06 0 1.344912e-06)
(2.078482 0.03231096 0 2.912591e-06 0 1.278234e-06)
(2.074422 0.03229246 0 3.613152e-06 0 1.260691e-06)
(2.069568 0.03227424 0 4.702706e-06 0 1.261374e-06)
(2.063714 0.03225613 0 6.314241e-06 0 1.246041e-06)
(2.056663 0.03223888 0 8.63965e-06 0 1.184262e-06)
(2.048276 0.03222472 0 1.194101e-05 0 1.055888e-06)
(2.038507 0.0322179 0 1.655749e-05 0 8.570094e-07)
(2.027446 0.03222523 0 2.290968e-05 0 6.058308e-07)
(2.015341 0.03225647 0 3.150756e-05 0 3.494871e-07)
(2.002589 0.03232481 0 4.297334e-05 0 1.724345e-07)
(1.989665 0.0324468 0 5.80927e-05 0 1.989815e-07)
(1.976796 0.03263961 0 7.78856e-05 0 5.409241e-07)
(1.962817 0.03290463 0 0.0001035162 0 9.718686e-07)
(1.945505 0.03322918 0 0.0001369059 0 9.65506e-07)
(1.924413 0.03362214 0 0.0001798832 0 4.215201e-07)
(1.901588 0.03412212 0 0.0002338033 0 -1.943581e-07)
(1.878914 0.03476252 0 0.0003004734 0 -5.675626e-07)
(1.857014 0.0355576 0 0.0003817403 0 -7.352177e-07)
(1.836096 0.03651743 0 0.0004798032 0 -7.795442e-07)
(1.816245 0.03765215 0 0.0005973171 0 -7.555884e-07)
(1.797488 0.0389721 0 0.0007374127 0 -6.917423e-07)
(1.779792 0.0404866 0 0.0009036892 0 -6.025585e-07)
(1.763048 0.04220276 0 0.001100194 0 -4.976479e-07)
(1.747071 0.04412427 0 0.001331385 0 -3.852343e-07)
(1.731601 0.04625046 0 0.001602066 0 -2.731658e-07)
(1.716323 0.04857558 0 0.001917292 0 -1.683998e-07)
(1.70088 0.05108827 0 0.002282248 0 -7.636945e-08)
(1.684904 0.05377147 0 0.002702097 0 -1.90732e-10)
(1.668038 0.0566025 0 0.0031818 0 5.879852e-08)
(1.649953 0.05955355 0 0.003725929 0 1.007901e-07)
(1.63037 0.06259246 0 0.004338466 0 1.278993e-07)
(1.609068 0.06568351 0 0.00502261 0 1.426584e-07)
(1.585887 0.06878863 0 0.005780596 0 1.481207e-07)
(1.56073 0.07186823 0 0.006613517 0 1.468063e-07)
(1.533557 0.07488242 0 0.007521195 0 1.4161e-07)
(1.504374 0.07779169 0 0.008502045 0 1.344117e-07)
(1.473227 0.08055789 0 0.009553005 0 1.266261e-07)
(1.440187 0.08314472 0 0.01066947 0 1.196672e-07)
(1.405348 0.08551818 0 0.01184527 0 1.141763e-07)
(1.368807 0.08764692 0 0.01307265 0 1.102871e-07)
(1.330669 0.0895024 0 0.01434235 0 1.085846e-07)
(1.291028 0.09105877 0 0.01564357 0 1.089843e-07)
(1.249972 0.09229292 0 0.01696409 0 1.115739e-07)
(1.207573 0.09318403 0 0.0182903 0 1.160106e-07)
(1.163888 0.09371343 0 0.01960724 0 1.227177e-07)
(1.118953 0.09386399 0 0.02089863 0 1.312637e-07)
(1.072786 0.09361966 0 0.02214682 0 1.419659e-07)
(1.025385 0.09296489 0 0.02333276 0 1.547908e-07)
(0.9767254 0.09188392 0 0.02443576 0 1.697955e-07)
(0.9267648 0.09036008 0 0.02543321 0 1.875856e-07)
(0.8754414 0.088375 0 0.02630013 0 2.08239e-07)
(0.8226769 0.08590791 0 0.0270085 0 2.325139e-07)
(0.768379 0.08293489 0 0.02752638 0 2.612653e-07)
(0.7124444 0.07942833 0 0.02781676 0 2.956233e-07)
(0.6547639 0.07535642 0 0.02783606 0 3.367052e-07)
(0.5952297 0.07068341 0 0.02753269 0 3.868793e-07)
(0.5337414 0.06537012 0 0.0268452 0 4.48067e-07)
(0.4702218 0.05937611 0 0.02570119 0 5.223153e-07)
(0.4046303 0.05266264 0 0.02401676 0 6.077003e-07)
(0.3370191 0.04520334 0 0.02170076 0 6.912784e-07)
(0.2676196 0.03699854 0 0.01866345 0 7.214957e-07)
(0.1973695 0.02816205 0 0.01487158 0 5.87391e-07)
(0.1289908 0.01907834 0 0.01045844 0 8.788938e-08)
(0.07036126 0.01095014 0 0.006113914 0 -5.795486e-07)
(0.03112657 0.005287625 0 0.00286164 0 -8.064732e-07)
(0.01309673 0.002607815 0 0.001288246 0 -3.903708e-07)
(0.005231499 0.001314731 0 0.0004994314 0 -1.887987e-07)
(0.002571782 0.0008657008 0 0.0003552579 0 -1.466032e-08)
(0.0005157391 0.0003475707 0 -4.388345e-05 0 -5.897418e-08)
(0.0001673692 0.0001377589 0 8.053545e-05 0 -6.489923e-09)
(2.090484 0.03240202 0 2.641391e-06 0 2.111266e-06)
(2.089311 0.03238932 0 2.495993e-06 0 1.91917e-06)
(2.08737 0.03237077 0 2.365072e-06 0 1.682731e-06)
(2.084881 0.03235037 0 2.347851e-06 0 1.480201e-06)
(2.081929 0.03233021 0 2.511823e-06 0 1.344912e-06)
(2.078482 0.03231096 0 2.912591e-06 0 1.278234e-06)
(2.074422 0.03229246 0 3.613152e-06 0 1.260691e-06)
(2.069568 0.03227424 0 4.702706e-06 0 1.261374e-06)
(2.063714 0.03225613 0 6.314241e-06 0 1.246041e-06)
(2.056663 0.03223888 0 8.63965e-06 0 1.184262e-06)
(2.048276 0.03222472 0 1.194101e-05 0 1.055888e-06)
(2.038507 0.0322179 0 1.655749e-05 0 8.570094e-07)
(2.027446 0.03222523 0 2.290968e-05 0 6.058308e-07)
(2.015341 0.03225647 0 3.150756e-05 0 3.494871e-07)
(2.002589 0.03232481 0 4.297334e-05 0 1.724345e-07)
(1.989665 0.0324468 0 5.80927e-05 0 1.989815e-07)
(1.976796 0.03263961 0 7.78856e-05 0 5.409241e-07)
(1.962817 0.03290463 0 0.0001035162 0 9.718686e-07)
(1.945505 0.03322918 0 0.0001369059 0 9.65506e-07)
(1.924413 0.03362214 0 0.0001798832 0 4.215201e-07)
(1.901588 0.03412212 0 0.0002338033 0 -1.943581e-07)
(1.878914 0.03476252 0 0.0003004734 0 -5.675626e-07)
(1.857014 0.0355576 0 0.0003817403 0 -7.352177e-07)
(1.836096 0.03651743 0 0.0004798032 0 -7.795442e-07)
(1.816245 0.03765215 0 0.0005973171 0 -7.555884e-07)
(1.797488 0.0389721 0 0.0007374127 0 -6.917423e-07)
(1.779792 0.0404866 0 0.0009036892 0 -6.025585e-07)
(1.763048 0.04220276 0 0.001100194 0 -4.976479e-07)
(1.747071 0.04412427 0 0.001331385 0 -3.852343e-07)
(1.731601 0.04625046 0 0.001602066 0 -2.731658e-07)
(1.716323 0.04857558 0 0.001917292 0 -1.683998e-07)
(1.70088 0.05108827 0 0.002282248 0 -7.636945e-08)
(1.684904 0.05377147 0 0.002702097 0 -1.90732e-10)
(1.668038 0.0566025 0 0.0031818 0 5.879852e-08)
(1.649953 0.05955355 0 0.003725929 0 1.007901e-07)
(1.63037 0.06259246 0 0.004338466 0 1.278993e-07)
(1.609068 0.06568351 0 0.00502261 0 1.426584e-07)
(1.585887 0.06878863 0 0.005780596 0 1.481207e-07)
(1.56073 0.07186823 0 0.006613517 0 1.468063e-07)
(1.533557 0.07488242 0 0.007521195 0 1.4161e-07)
(1.504374 0.07779169 0 0.008502045 0 1.344117e-07)
(1.473227 0.08055789 0 0.009553005 0 1.266261e-07)
(1.440187 0.08314472 0 0.01066947 0 1.196672e-07)
(1.405348 0.08551818 0 0.01184527 0 1.141763e-07)
(1.368807 0.08764692 0 0.01307265 0 1.102871e-07)
(1.330669 0.0895024 0 0.01434235 0 1.085846e-07)
(1.291028 0.09105877 0 0.01564357 0 1.089843e-07)
(1.249972 0.09229292 0 0.01696409 0 1.115739e-07)
(1.207573 0.09318403 0 0.0182903 0 1.160106e-07)
(1.163888 0.09371343 0 0.01960724 0 1.227177e-07)
(1.118953 0.09386399 0 0.02089863 0 1.312637e-07)
(1.072786 0.09361966 0 0.02214682 0 1.419659e-07)
(1.025385 0.09296489 0 0.02333276 0 1.547908e-07)
(0.9767254 0.09188392 0 0.02443576 0 1.697955e-07)
(0.9267648 0.09036008 0 0.02543321 0 1.875856e-07)
(0.8754414 0.088375 0 0.02630013 0 2.08239e-07)
(0.8226769 0.08590791 0 0.0270085 0 2.325139e-07)
(0.768379 0.08293489 0 0.02752638 0 2.612653e-07)
(0.7124444 0.07942833 0 0.02781676 0 2.956233e-07)
(0.6547639 0.07535642 0 0.02783606 0 3.367052e-07)
(0.5952297 0.07068341 0 0.02753269 0 3.868793e-07)
(0.5337414 0.06537012 0 0.0268452 0 4.48067e-07)
(0.4702218 0.05937611 0 0.02570119 0 5.223153e-07)
(0.4046303 0.05266264 0 0.02401676 0 6.077003e-07)
(0.3370191 0.04520334 0 0.02170076 0 6.912784e-07)
(0.2676196 0.03699854 0 0.01866345 0 7.214957e-07)
(0.1973695 0.02816205 0 0.01487158 0 5.87391e-07)
(0.1289908 0.01907834 0 0.01045844 0 8.788938e-08)
(0.07036126 0.01095014 0 0.006113914 0 -5.795486e-07)
(0.03112657 0.005287625 0 0.00286164 0 -8.064732e-07)
(0.01309673 0.002607815 0 0.001288246 0 -3.903708e-07)
(0.005231499 0.001314731 0 0.0004994314 0 -1.887987e-07)
(0.002571782 0.0008657008 0 0.0003552579 0 -1.466032e-08)
(0.0005157391 0.0003475707 0 -4.388345e-05 0 -5.897418e-08)
(0.0001673692 0.0001377589 0 8.053545e-05 0 -6.489923e-09)
)
;
    }
    wall
    {
        type            calculated;
        value           nonuniform List<symmTensor> 2((2.090494 0.03240226 0 2.646396e-06 0 2.112388e-06) (2.090473 0.03240179 0 2.636386e-06 0 2.110144e-06));
    }
    frontAndBack
    {
        type            empty;
    }
    middle
    {
        type            symmetryPlane;
        value           nonuniform List<symmTensor> 2((0.0001673707 0 0 8.053637e-05 0 -6.004792e-09) (0.0001673678 0 0 8.053453e-05 0 -6.975054e-09));
    }
}


// ************************************************************************* //
