/*--------------------------------*- C++ -*----------------------------------*\
| =========                 |                                                 |
| \\      /  F ield         | foam-extend: Open Source CFD                    |
|  \\    /   O peration     | Version:     4.0                                |
|   \\  /    A nd           | Web:         http://www.foam-extend.org         |
|    \\/     M anipulation  |                                                 |
\*---------------------------------------------------------------------------*/
FoamFile
{
    version     2.0;
    format      ascii;
    class       volScalarField;
    location    "100";
    object      trC;
}
// * * * * * * * * * * * * * * * * * * * * * * * * * * * * * * * * * * * * * //

dimensions      [0 0 0 0 0 0 0];

internalField   nonuniform List<scalar> 
150
(
630.0451
630.0432
629.9391
629.9372
629.7635
629.7617
629.5381
629.5365
629.2702
629.2689
628.9568
628.9558
628.5868
628.586
628.1431
628.1426
627.6062
627.6058
626.9567
626.9565
626.1802
626.1801
625.2702
625.2703
624.2328
624.2329
623.0885
623.0887
621.8731
621.8733
620.6306
620.6309
619.3828
619.3831
618.0152
618.0155
616.3029
616.3033
614.1888
614.1892
611.8659
611.8662
609.5221
609.5223
607.2236
607.2238
604.9961
604.9963
602.8534
602.8535
600.8032
600.8033
598.8466
598.8468
596.9761
596.9763
595.1745
595.1747
593.4151
593.4153
591.663
591.6632
589.8771
589.8772
588.0128
588.0129
586.0244
586.0246
583.8678
583.8679
581.5018
581.5019
578.8897
578.8899
576.0001
576.0002
572.806
572.8061
569.2854
569.2856
565.42
565.4202
561.1939
561.1942
556.5932
556.5934
551.6042
551.6045
546.2126
546.213
540.4025
540.4029
534.1547
534.1551
527.4461
527.4465
520.2482
520.2486
512.5259
512.5263
504.2358
504.2361
495.3247
495.325
485.7275
485.7277
475.3647
475.3649
464.1394
464.1396
451.9335
451.9336
438.6028
438.6029
423.9711
423.9712
407.8223
407.8224
389.8901
389.8902
369.8451
369.8452
347.277
347.2771
321.6731
321.6732
292.3896
292.3898
258.6343
258.6345
219.4713
219.4715
174.1684
174.1686
123.3388
123.3387
73.25046
73.2503
35.6415
35.6414
17.11111
17.11109
8.675506
8.675494
5.907819
5.907805
3.469976
3.469979
3.247007
3.247001
)
;

boundaryField
{
    leftandright
    {
        type            cyclic;
        value           nonuniform List<scalar> 
150
(
630.0441
629.9381
629.7626
629.5373
629.2695
628.9563
628.5864
628.1429
627.606
626.9566
626.1801
625.2702
624.2328
623.0886
621.8732
620.6307
619.3829
618.0154
616.3031
614.189
611.866
609.5222
607.2237
604.9962
602.8534
600.8033
598.8467
596.9762
595.1746
593.4152
591.6631
589.8772
588.0128
586.0245
583.8678
581.5018
578.8898
576.0001
572.8061
569.2855
565.4201
561.194
556.5933
551.6044
546.2128
540.4027
534.1549
527.4463
520.2484
512.5261
504.236
495.3248
485.7276
475.3648
464.1395
451.9336
438.6028
423.9711
407.8224
389.8901
369.8452
347.277
321.6732
292.3897
258.6344
219.4714
174.1685
123.3388
73.25038
35.64145
17.1111
8.6755
5.907812
3.469978
3.247004
630.0441
629.9381
629.7626
629.5373
629.2695
628.9563
628.5864
628.1429
627.606
626.9566
626.1801
625.2702
624.2328
623.0886
621.8732
620.6307
619.3829
618.0154
616.3031
614.189
611.866
609.5222
607.2237
604.9962
602.8534
600.8033
598.8467
596.9762
595.1746
593.4152
591.6631
589.8772
588.0128
586.0245
583.8678
581.5018
578.8898
576.0001
572.8061
569.2855
565.4201
561.194
556.5933
551.6044
546.2128
540.4027
534.1549
527.4463
520.2484
512.5261
504.236
495.3248
485.7276
475.3648
464.1395
451.9336
438.6028
423.9711
407.8224
389.8901
369.8452
347.277
321.6732
292.3897
258.6344
219.4714
174.1685
123.3388
73.25038
35.64145
17.1111
8.6755
5.907812
3.469978
3.247004
)
;
    }
    wall
    {
        type            calculated;
        value           nonuniform List<scalar> 2(630.0451 630.0432);
    }
    frontAndBack
    {
        type            empty;
    }
    middle
    {
        type            symmetryPlane;
        value           nonuniform List<scalar> 2(3.247007 3.247001);
    }
}


// ************************************************************************* //
