/*--------------------------------*- C++ -*----------------------------------*\
| =========                 |                                                 |
| \\      /  F ield         | foam-extend: Open Source CFD                    |
|  \\    /   O peration     | Version:     4.0                                |
|   \\  /    A nd           | Web:         http://www.foam-extend.org         |
|    \\/     M anipulation  |                                                 |
\*---------------------------------------------------------------------------*/
FoamFile
{
    version     2.0;
    format      ascii;
    class       volVectorField;
    location    "100";
    object      U;
}
// * * * * * * * * * * * * * * * * * * * * * * * * * * * * * * * * * * * * * //

dimensions      [0 1 -1 0 0 0 0];

internalField   nonuniform List<vector> 
150
(
(0.1204292 6.417789e-08 0)
(0.1204292 6.382912e-08 0)
(0.3671259 1.879938e-07 0)
(0.3671259 1.871745e-07 0)
(0.6260791 3.056287e-07 0)
(0.6260792 3.048351e-07 0)
(0.8978642 4.422815e-07 0)
(0.8978644 4.414983e-07 0)
(1.183061 5.902085e-07 0)
(1.183061 5.894253e-07 0)
(1.482242 7.418268e-07 0)
(1.482243 7.410494e-07 0)
(1.795957 8.890588e-07 0)
(1.795957 8.88299e-07 0)
(2.12471 1.02232e-06 0)
(2.12471 1.021587e-06 0)
(2.468946 1.130423e-06 0)
(2.468946 1.12972e-06 0)
(2.829022 1.201724e-06 0)
(2.829022 1.201054e-06 0)
(3.205193 1.225785e-06 0)
(3.205193 1.22515e-06 0)
(3.597602 1.195072e-06 0)
(3.597602 1.194472e-06 0)
(4.006274 1.107329e-06 0)
(4.006273 1.106763e-06 0)
(4.431126 9.718026e-07 0)
(4.431126 9.712689e-07 0)
(4.871984 8.127856e-07 0)
(4.871983 8.122817e-07 0)
(5.3286 6.198493e-07 0)
(5.3286 6.19373e-07 0)
(5.800677 8.733826e-08 0)
(5.800676 8.688723e-08 0)
(6.287888 -9.526545e-07 0)
(6.287888 -9.530824e-07 0)
(6.788549 -1.741846e-06 0)
(6.788549 -1.742252e-06 0)
(7.29924 -1.901737e-06 0)
(7.29924 -1.902122e-06 0)
(7.817117 -2.088916e-06 0)
(7.817117 -2.089283e-06 0)
(8.340235 -2.497552e-06 0)
(8.340235 -2.497901e-06 0)
(8.866625 -2.885463e-06 0)
(8.866625 -2.885788e-06 0)
(9.394331 -3.185234e-06 0)
(9.394331 -3.185531e-06 0)
(9.921436 -3.379245e-06 0)
(9.921436 -3.379515e-06 0)
(10.4461 -3.458211e-06 0)
(10.4461 -3.458455e-06 0)
(10.96656 -3.417615e-06 0)
(10.96656 -3.417826e-06 0)
(11.48122 -3.261414e-06 0)
(11.48122 -3.261583e-06 0)
(11.9886 -3.001791e-06 0)
(11.9886 -3.001924e-06 0)
(12.48739 -2.656984e-06 0)
(12.48739 -2.657099e-06 0)
(12.97647 -2.248671e-06 0)
(12.97647 -2.248707e-06 0)
(13.4549 -1.79935e-06 0)
(13.4549 -1.799372e-06 0)
(13.92192 -1.330721e-06 0)
(13.92192 -1.330687e-06 0)
(14.37695 -8.619144e-07 0)
(14.37695 -8.61818e-07 0)
(14.81958 -4.086747e-07 0)
(14.81958 -4.085852e-07 0)
(15.24956 1.663009e-08 0)
(15.24956 1.679023e-08 0)
(15.66679 4.057038e-07 0)
(15.66679 4.059406e-07 0)
(16.07126 7.531795e-07 0)
(16.07126 7.533665e-07 0)
(16.46311 1.056515e-06 0)
(16.46311 1.056795e-06 0)
(16.84254 1.315542e-06 0)
(16.84254 1.315872e-06 0)
(17.20984 1.531531e-06 0)
(17.20984 1.531861e-06 0)
(17.56533 1.707254e-06 0)
(17.56533 1.70763e-06 0)
(17.90941 1.846021e-06 0)
(17.90941 1.846395e-06 0)
(18.24247 1.951448e-06 0)
(18.24247 1.951832e-06 0)
(18.56494 2.027701e-06 0)
(18.56494 2.028058e-06 0)
(18.87724 2.078578e-06 0)
(18.87724 2.078936e-06 0)
(19.17978 2.107793e-06 0)
(19.17978 2.108096e-06 0)
(19.47298 2.118894e-06 0)
(19.47298 2.119218e-06 0)
(19.75721 2.114982e-06 0)
(19.75721 2.115118e-06 0)
(20.03283 2.098806e-06 0)
(20.03283 2.098836e-06 0)
(20.30015 2.072537e-06 0)
(20.30015 2.072508e-06 0)
(20.55945 2.037986e-06 0)
(20.55945 2.037843e-06 0)
(20.81097 1.996341e-06 0)
(20.81097 1.996225e-06 0)
(21.05488 1.948273e-06 0)
(21.05488 1.948433e-06 0)
(21.29133 1.893566e-06 0)
(21.29133 1.893458e-06 0)
(21.52038 1.830906e-06 0)
(21.52038 1.830813e-06 0)
(21.74205 1.758293e-06 0)
(21.74205 1.758242e-06 0)
(21.9563 1.673061e-06 0)
(21.9563 1.672771e-06 0)
(22.16302 1.568653e-06 0)
(22.16302 1.568622e-06 0)
(22.36205 1.439479e-06 0)
(22.36205 1.439633e-06 0)
(22.55318 1.274804e-06 0)
(22.55318 1.274964e-06 0)
(22.73614 1.070882e-06 0)
(22.73614 1.070856e-06 0)
(22.91063 7.77887e-07 0)
(22.91063 7.777645e-07 0)
(23.07632 4.719493e-07 0)
(23.07632 4.719553e-07 0)
(23.2329 -2.911229e-07 0)
(23.2329 -2.90901e-07 0)
(23.38001 -7.150341e-07 0)
(23.38001 -7.151295e-07 0)
(23.51732 -5.687577e-06 0)
(23.51732 -5.68797e-06 0)
(23.64444 -3.442071e-06 0)
(23.64444 -3.442409e-06 0)
(23.76069 -2.535611e-05 0)
(23.76069 -2.535622e-05 0)
(23.86495 7.071566e-05 0)
(23.86495 7.071572e-05 0)
(23.95566 -0.0001918546 0)
(23.95566 -0.0001918545 0)
(24.03128 0.0006440373 0)
(24.03128 0.0006440373 0)
(24.09047 -0.001996145 0)
(24.09047 -0.001996145 0)
(24.13187 0.005959305 0)
(24.13187 0.005959305 0)
(24.15379 -0.01132696 0)
(24.15379 -0.01132696 0)
)
;

boundaryField
{
    leftandright
    {
        type            cyclic;
        value           nonuniform List<vector> 
150
(
(0.1204292 6.40035e-08 0)
(0.3671259 1.875841e-07 0)
(0.6260791 3.052319e-07 0)
(0.8978643 4.418899e-07 0)
(1.183061 5.898169e-07 0)
(1.482243 7.414381e-07 0)
(1.795957 8.886789e-07 0)
(2.12471 1.021954e-06 0)
(2.468946 1.130072e-06 0)
(2.829022 1.201389e-06 0)
(3.205193 1.225467e-06 0)
(3.597602 1.194772e-06 0)
(4.006273 1.107046e-06 0)
(4.431126 9.715357e-07 0)
(4.871983 8.125336e-07 0)
(5.3286 6.196112e-07 0)
(5.800677 8.711274e-08 0)
(6.287888 -9.528685e-07 0)
(6.788549 -1.742049e-06 0)
(7.29924 -1.90193e-06 0)
(7.817117 -2.089099e-06 0)
(8.340235 -2.497726e-06 0)
(8.866625 -2.885626e-06 0)
(9.394331 -3.185383e-06 0)
(9.921436 -3.37938e-06 0)
(10.4461 -3.458333e-06 0)
(10.96656 -3.417721e-06 0)
(11.48122 -3.261498e-06 0)
(11.9886 -3.001858e-06 0)
(12.48739 -2.657041e-06 0)
(12.97647 -2.248689e-06 0)
(13.4549 -1.799361e-06 0)
(13.92192 -1.330704e-06 0)
(14.37695 -8.618662e-07 0)
(14.81958 -4.086299e-07 0)
(15.24956 1.671016e-08 0)
(15.66679 4.058222e-07 0)
(16.07126 7.53273e-07 0)
(16.46311 1.056655e-06 0)
(16.84254 1.315707e-06 0)
(17.20984 1.531696e-06 0)
(17.56533 1.707442e-06 0)
(17.90941 1.846208e-06 0)
(18.24247 1.95164e-06 0)
(18.56494 2.027879e-06 0)
(18.87724 2.078757e-06 0)
(19.17978 2.107944e-06 0)
(19.47298 2.119056e-06 0)
(19.75721 2.11505e-06 0)
(20.03283 2.098821e-06 0)
(20.30015 2.072522e-06 0)
(20.55945 2.037914e-06 0)
(20.81097 1.996283e-06 0)
(21.05488 1.948353e-06 0)
(21.29133 1.893512e-06 0)
(21.52038 1.83086e-06 0)
(21.74205 1.758268e-06 0)
(21.9563 1.672916e-06 0)
(22.16302 1.568637e-06 0)
(22.36205 1.439556e-06 0)
(22.55318 1.274884e-06 0)
(22.73614 1.070869e-06 0)
(22.91063 7.778258e-07 0)
(23.07632 4.719523e-07 0)
(23.2329 -2.910119e-07 0)
(23.38001 -7.150818e-07 0)
(23.51732 -5.687774e-06 0)
(23.64444 -3.44224e-06 0)
(23.76069 -2.535617e-05 0)
(23.86495 7.071569e-05 0)
(23.95566 -0.0001918546 0)
(24.03128 0.0006440373 0)
(24.09047 -0.001996145 0)
(24.13187 0.005959305 0)
(24.15379 -0.01132696 0)
(0.1204292 6.40035e-08 0)
(0.3671259 1.875841e-07 0)
(0.6260791 3.052319e-07 0)
(0.8978643 4.418899e-07 0)
(1.183061 5.898169e-07 0)
(1.482243 7.414381e-07 0)
(1.795957 8.886789e-07 0)
(2.12471 1.021954e-06 0)
(2.468946 1.130072e-06 0)
(2.829022 1.201389e-06 0)
(3.205193 1.225467e-06 0)
(3.597602 1.194772e-06 0)
(4.006273 1.107046e-06 0)
(4.431126 9.715357e-07 0)
(4.871983 8.125336e-07 0)
(5.3286 6.196112e-07 0)
(5.800677 8.711274e-08 0)
(6.287888 -9.528685e-07 0)
(6.788549 -1.742049e-06 0)
(7.29924 -1.90193e-06 0)
(7.817117 -2.089099e-06 0)
(8.340235 -2.497726e-06 0)
(8.866625 -2.885626e-06 0)
(9.394331 -3.185383e-06 0)
(9.921436 -3.37938e-06 0)
(10.4461 -3.458333e-06 0)
(10.96656 -3.417721e-06 0)
(11.48122 -3.261498e-06 0)
(11.9886 -3.001858e-06 0)
(12.48739 -2.657041e-06 0)
(12.97647 -2.248689e-06 0)
(13.4549 -1.799361e-06 0)
(13.92192 -1.330704e-06 0)
(14.37695 -8.618662e-07 0)
(14.81958 -4.086299e-07 0)
(15.24956 1.671016e-08 0)
(15.66679 4.058222e-07 0)
(16.07126 7.53273e-07 0)
(16.46311 1.056655e-06 0)
(16.84254 1.315707e-06 0)
(17.20984 1.531696e-06 0)
(17.56533 1.707442e-06 0)
(17.90941 1.846208e-06 0)
(18.24247 1.95164e-06 0)
(18.56494 2.027879e-06 0)
(18.87724 2.078757e-06 0)
(19.17978 2.107944e-06 0)
(19.47298 2.119056e-06 0)
(19.75721 2.11505e-06 0)
(20.03283 2.098821e-06 0)
(20.30015 2.072522e-06 0)
(20.55945 2.037914e-06 0)
(20.81097 1.996283e-06 0)
(21.05488 1.948353e-06 0)
(21.29133 1.893512e-06 0)
(21.52038 1.83086e-06 0)
(21.74205 1.758268e-06 0)
(21.9563 1.672916e-06 0)
(22.16302 1.568637e-06 0)
(22.36205 1.439556e-06 0)
(22.55318 1.274884e-06 0)
(22.73614 1.070869e-06 0)
(22.91063 7.778258e-07 0)
(23.07632 4.719523e-07 0)
(23.2329 -2.910119e-07 0)
(23.38001 -7.150818e-07 0)
(23.51732 -5.687774e-06 0)
(23.64444 -3.44224e-06 0)
(23.76069 -2.535617e-05 0)
(23.86495 7.071569e-05 0)
(23.95566 -0.0001918546 0)
(24.03128 0.0006440373 0)
(24.09047 -0.001996145 0)
(24.13187 0.005959305 0)
(24.15379 -0.01132696 0)
)
;
    }
    wall
    {
        type            fixedValue;
        value           uniform (0 0 0);
    }
    frontAndBack
    {
        type            empty;
    }
    middle
    {
        type            symmetryPlane;
        value           nonuniform List<vector> 2((24.15379 0 0) (24.15379 0 0));
    }
}


// ************************************************************************* //
