/*--------------------------------*- C++ -*----------------------------------*\
| =========                 |                                                 |
| \\      /  F ield         | foam-extend: Open Source CFD                    |
|  \\    /   O peration     | Version:     4.0                                |
|   \\  /    A nd           | Web:         http://www.foam-extend.org         |
|    \\/     M anipulation  |                                                 |
\*---------------------------------------------------------------------------*/
FoamFile
{
    version     2.0;
    format      ascii;
    class       volScalarField;
    location    "100";
    object      v2;
}
// * * * * * * * * * * * * * * * * * * * * * * * * * * * * * * * * * * * * * //

dimensions      [0 2 -2 0 0 0 0];

internalField   nonuniform List<scalar> 
150
(
3.215163e-08
3.215163e-08
1.630293e-06
1.630293e-06
1.056732e-05
1.056732e-05
3.777814e-05
3.777814e-05
9.976213e-05
9.976214e-05
0.0002188646
0.0002188646
0.0004233956
0.0004233957
0.0007475556
0.0007475557
0.001231139
0.001231139
0.001919004
0.001919004
0.002860316
0.002860316
0.004107605
0.004107605
0.005715717
0.005715717
0.007740753
0.007740754
0.01023912
0.01023912
0.01326675
0.01326675
0.01687864
0.01687864
0.02112868
0.02112868
0.02605656
0.02605656
0.03167801
0.03167802
0.03800422
0.03800422
0.04504728
0.04504729
0.05280979
0.05280979
0.06128391
0.06128392
0.07045088
0.07045089
0.08028093
0.08028093
0.09073363
0.09073364
0.1017588
0.1017588
0.1132974
0.1132974
0.1252834
0.1252834
0.1376448
0.1376448
0.1503055
0.1503055
0.1631868
0.1631868
0.1762086
0.1762086
0.189291
0.189291
0.202355
0.202355
0.2153235
0.2153235
0.2281221
0.2281221
0.2406796
0.2406796
0.2529282
0.2529282
0.2648041
0.2648041
0.2762476
0.2762476
0.2872032
0.2872032
0.29762
0.29762
0.3074516
0.3074516
0.3166563
0.3166563
0.3251976
0.3251976
0.3330442
0.3330442
0.3401702
0.3401702
0.3465559
0.3465559
0.3521877
0.3521877
0.3570592
0.3570592
0.3611711
0.3611711
0.3645322
0.3645322
0.3671596
0.3671595
0.3690792
0.3690792
0.3703259
0.3703258
0.3709432
0.3709432
0.3709826
0.3709826
0.3705022
0.3705021
0.3695637
0.3695637
0.368229
0.368229
0.3665544
0.3665544
0.3645831
0.3645831
0.3623354
0.3623354
0.3597968
0.3597968
0.3569036
0.3569035
0.3535256
0.3535256
0.3494484
0.3494484
0.3443557
0.3443557
0.3384045
0.3384045
0.3323702
0.3323702
0.3269716
0.3269716
0.3228474
0.3228474
0.3205444
0.3205444
)
;

boundaryField
{
    leftandright
    {
        type            cyclic;
        value           nonuniform List<scalar> 
150
(
3.215163e-08
1.630293e-06
1.056732e-05
3.777814e-05
9.976214e-05
0.0002188646
0.0004233957
0.0007475557
0.001231139
0.001919004
0.002860316
0.004107605
0.005715717
0.007740754
0.01023912
0.01326675
0.01687864
0.02112868
0.02605656
0.03167802
0.03800422
0.04504728
0.05280979
0.06128391
0.07045089
0.08028093
0.09073363
0.1017588
0.1132974
0.1252834
0.1376448
0.1503055
0.1631868
0.1762086
0.189291
0.202355
0.2153235
0.2281221
0.2406796
0.2529282
0.2648041
0.2762476
0.2872032
0.29762
0.3074516
0.3166563
0.3251976
0.3330442
0.3401702
0.3465559
0.3521877
0.3570592
0.3611711
0.3645322
0.3671596
0.3690792
0.3703259
0.3709432
0.3709826
0.3705021
0.3695637
0.368229
0.3665544
0.3645831
0.3623354
0.3597968
0.3569035
0.3535256
0.3494484
0.3443557
0.3384045
0.3323702
0.3269716
0.3228474
0.3205444
3.215163e-08
1.630293e-06
1.056732e-05
3.777814e-05
9.976214e-05
0.0002188646
0.0004233957
0.0007475557
0.001231139
0.001919004
0.002860316
0.004107605
0.005715717
0.007740754
0.01023912
0.01326675
0.01687864
0.02112868
0.02605656
0.03167802
0.03800422
0.04504728
0.05280979
0.06128391
0.07045089
0.08028093
0.09073363
0.1017588
0.1132974
0.1252834
0.1376448
0.1503055
0.1631868
0.1762086
0.189291
0.202355
0.2153235
0.2281221
0.2406796
0.2529282
0.2648041
0.2762476
0.2872032
0.29762
0.3074516
0.3166563
0.3251976
0.3330442
0.3401702
0.3465559
0.3521877
0.3570592
0.3611711
0.3645322
0.3671596
0.3690792
0.3703259
0.3709432
0.3709826
0.3705021
0.3695637
0.368229
0.3665544
0.3645831
0.3623354
0.3597968
0.3569035
0.3535256
0.3494484
0.3443557
0.3384045
0.3323702
0.3269716
0.3228474
0.3205444
)
;
    }
    wall
    {
        type            fixedValue;
        value           uniform 1e-10;
    }
    frontAndBack
    {
        type            empty;
    }
    middle
    {
        type            symmetryPlane;
        value           nonuniform List<scalar> 2(0.3205444 0.3205444);
    }
}


// ************************************************************************* //
