/*--------------------------------*- C++ -*----------------------------------*\
| =========                 |                                                 |
| \\      /  F ield         | foam-extend: Open Source CFD                    |
|  \\    /   O peration     | Version:     4.0                                |
|   \\  /    A nd           | Web:         http://www.foam-extend.org         |
|    \\/     M anipulation  |                                                 |
\*---------------------------------------------------------------------------*/
FoamFile
{
    version     2.0;
    format      ascii;
    class       volScalarField;
    location    "100";
    object      yPlus;
}
// * * * * * * * * * * * * * * * * * * * * * * * * * * * * * * * * * * * * * //

dimensions      [0 -1 1 0 0 0 0];

internalField   nonuniform List<scalar> 
150
(
0.1120778
0.1120778
0.3419621
0.3419621
0.5835966
0.5835966
0.8375817
0.8375817
1.104549
1.104549
1.385161
1.385161
1.680117
1.680117
1.990149
1.990149
2.316027
2.316027
2.658562
2.658562
3.018605
3.018605
3.397051
3.397051
3.794841
3.794841
4.212962
4.212962
4.652456
4.652456
5.114413
5.114413
5.599982
5.599982
6.110371
6.110371
6.646846
6.646846
7.210743
7.210743
7.803462
7.803462
8.426477
8.426477
9.081337
9.081337
9.769668
9.769668
10.49318
10.49318
11.25368
11.25368
12.05304
12.05304
12.89327
12.89327
13.77644
13.77644
14.70475
14.70475
15.68051
15.68051
16.70615
16.70615
17.78421
17.78421
18.91737
18.91737
20.10845
20.10845
21.36041
21.36041
22.67637
22.67637
24.05958
24.05958
25.5135
25.5135
27.04173
27.04173
28.64807
28.64807
30.33652
30.33652
32.11127
32.11127
33.97673
33.97673
35.93754
35.93754
37.99858
37.99858
40.16496
40.16496
42.44207
42.44207
44.83558
44.83558
47.35142
47.35142
49.99585
49.99585
52.77545
52.77545
55.69713
55.69713
58.76814
58.76814
61.99612
61.99612
65.38909
65.38909
68.95548
68.95548
72.70417
72.70417
76.64446
76.64446
80.78615
80.78615
85.13954
85.13954
89.71545
89.71545
94.52524
94.52524
99.58088
99.58088
104.8949
104.8949
110.4806
110.4806
116.3517
116.3517
122.523
122.523
129.0097
129.0097
135.8279
135.8279
142.9947
142.9947
150.5277
150.5277
158.4458
158.4458
166.7687
166.7687
175.5169
175.5169
)
;

boundaryField
{
    leftandright
    {
        type            cyclic;
        value           nonuniform List<scalar> 
150
(
4.501395
4.512974
4.537685
4.577286
4.633576
4.708362
4.803415
4.920436
5.061026
5.226658
5.418669
5.638258
5.886494
6.164337
6.472661
6.812285
7.183996
7.588585
8.026865
8.499695
9.007998
9.552776
10.13512
10.75623
11.41739
12.12003
12.86568
13.656
14.49277
15.3779
16.31344
17.3016
18.3447
19.44523
20.60582
21.82927
23.11855
24.47679
25.90731
27.41359
28.99934
30.66846
32.42504
34.27343
36.21819
38.26411
40.41626
42.67997
45.06084
47.56476
50.19796
52.96696
55.87862
58.94017
62.15922
65.54375
69.10216
72.8433
76.77645
80.91139
85.25838
89.82823
94.63229
99.6825
104.9914
110.5722
116.4387
122.6056
129.0882
135.9025
143.0655
150.595
158.5097
166.8294
175.5746
4.501395
4.512974
4.537685
4.577286
4.633576
4.708362
4.803415
4.920436
5.061026
5.226658
5.418669
5.638258
5.886494
6.164337
6.472661
6.812285
7.183996
7.588585
8.026865
8.499695
9.007998
9.552776
10.13512
10.75623
11.41739
12.12003
12.86568
13.656
14.49277
15.3779
16.31344
17.3016
18.3447
19.44523
20.60582
21.82927
23.11855
24.47679
25.90731
27.41359
28.99934
30.66846
32.42504
34.27343
36.21819
38.26411
40.41626
42.67997
45.06084
47.56476
50.19796
52.96696
55.87862
58.94017
62.15922
65.54375
69.10216
72.8433
76.77645
80.91139
85.25838
89.82823
94.63229
99.6825
104.9914
110.5722
116.4387
122.6056
129.0882
135.9025
143.0655
150.595
158.5097
166.8294
175.5746
)
;
    }
    wall
    {
        type            calculated;
        value           uniform 1.8e-13;
    }
    frontAndBack
    {
        type            empty;
    }
    middle
    {
        type            symmetryPlane;
        value           uniform 180;
    }
}


// ************************************************************************* //
