/*--------------------------------*- C++ -*----------------------------------*\
| =========                 |                                                 |
| \\      /  F ield         | foam-extend: Open Source CFD                    |
|  \\    /   O peration     | Version:     4.0                                |
|   \\  /    A nd           | Web:         http://www.foam-extend.org         |
|    \\/     M anipulation  |                                                 |
\*---------------------------------------------------------------------------*/
FoamFile
{
    version     2.0;
    format      ascii;
    class       volSymmTensorField;
    location    "100";
    object      C;
}
// * * * * * * * * * * * * * * * * * * * * * * * * * * * * * * * * * * * * * //

dimensions      [0 0 0 0 0 0 0];

internalField   nonuniform List<symmTensor> 
150
(
(1340.46 20.68864 0 0.6340694 0 0.6291498)
(1340.459 20.68861 0 0.6340691 0 0.6291499)
(1339.117 20.70772 0 0.6354951 0 0.6295461)
(1339.117 20.70769 0 0.6354947 0 0.6295463)
(1336.23 20.75833 0 0.6392137 0 0.6304081)
(1336.23 20.75829 0 0.6392133 0 0.6304082)
(1331.301 20.85693 0 0.6467393 0 0.6318284)
(1331.301 20.8569 0 0.646739 0 0.6318285)
(1323.924 21.02779 0 0.6601782 0 0.6339102)
(1323.924 21.02777 0 0.660178 0 0.6339103)
(1313.873 21.30619 0 0.6823515 0 0.6367633)
(1313.873 21.30618 0 0.6823514 0 0.6367634)
(1300.165 21.72436 0 0.7171328 0 0.6405259)
(1300.166 21.72436 0 0.7171328 0 0.6405259)
(1281.63 22.31033 0 0.7706879 0 0.6452996)
(1281.631 22.31034 0 0.7706882 0 0.6452997)
(1258.821 23.09795 0 0.8476031 0 0.6510025)
(1258.821 23.09797 0 0.8476035 0 0.6510025)
(1233.917 24.12594 0 0.9522807 0 0.6573518)
(1233.917 24.12597 0 0.9522815 0 0.6573518)
(1208.591 25.41682 0 1.090162 0 0.6640329)
(1208.591 25.41685 0 1.090163 0 0.6640328)
(1183.615 26.97565 0 1.267817 0 0.6708177)
(1183.615 26.97569 0 1.267819 0 0.6708177)
(1159.119 28.79407 0 1.49286 0 0.6775984)
(1159.12 28.79411 0 1.492861 0 0.6775984)
(1134.844 30.85136 0 1.773655 0 0.6843722)
(1134.844 30.8514 0 1.773658 0 0.6843722)
(1110.333 33.11417 0 2.118834 0 0.6912087)
(1110.333 33.11421 0 2.118837 0 0.6912086)
(1085.077 35.53659 0 2.536652 0 0.698213)
(1085.077 35.53663 0 2.536655 0 0.6982129)
(1058.619 38.06143 0 3.034256 0 0.7054949)
(1058.62 38.06148 0 3.03426 0 0.7054948)
(1030.621 40.62297 0 3.616937 0 0.7131448)
(1030.621 40.62302 0 3.616941 0 0.7131448)
(1000.893 43.1506 0 4.287433 0 0.7212205)
(1000.893 43.15064 0 4.287438 0 0.7212204)
(969.3987 45.57296 0 5.045378 0 0.7297418)
(969.3988 45.57299 0 5.045383 0 0.7297418)
(936.2349 47.82185 0 5.886933 0 0.7386935)
(936.2349 47.82189 0 5.886938 0 0.7386934)
(901.5937 49.8356 0 6.804645 0 0.7480325)
(901.5938 49.83563 0 6.80465 0 0.7480324)
(865.7266 51.56137 0 7.787525 0 0.7576979)
(865.7267 51.5614 0 7.78753 0 0.7576978)
(828.9087 52.95675 0 8.821339 0 0.7676205)
(828.9088 52.95677 0 8.821345 0 0.7676204)
(791.4121 53.99029 0 9.889078 0 0.7777304)
(791.4122 53.99032 0 9.889084 0 0.7777303)
(753.4867 54.6412 0 10.9714 0 0.7879633)
(753.4869 54.64122 0 10.97141 0 0.7879633)
(715.3486 54.89822 0 12.04702 0 0.798264)
(715.3488 54.89824 0 12.04702 0 0.7982639)
(677.1756 54.75858 0 13.09313 0 0.8085877)
(677.1759 54.7586 0 13.09314 0 0.8085877)
(639.107 54.22677 0 14.08596 0 0.8189009)
(639.1073 54.22681 0 14.08597 0 0.8189009)
(601.2463 53.31353 0 15.00122 0 0.8291802)
(601.2466 53.31357 0 15.00123 0 0.8291803)
(563.6658 52.03462 0 15.81472 0 0.8394111)
(563.6662 52.03466 0 15.81473 0 0.8394112)
(526.4126 50.40992 0 16.50285 0 0.8495862)
(526.413 50.40996 0 16.50286 0 0.8495863)
(489.5146 48.46255 0 17.04318 0 0.8597033)
(489.5151 48.46259 0 17.0432 0 0.8597034)
(452.9879 46.21823 0 17.41502 0 0.8697631)
(452.9884 46.21827 0 17.41503 0 0.8697632)
(416.844 43.70481 0 17.59997 0 0.8797672)
(416.8446 43.70486 0 17.59999 0 0.8797673)
(381.0989 40.9521 0 17.5826 0 0.8897152)
(381.0995 40.95216 0 17.58262 0 0.8897155)
(345.7815 37.99205 0 17.35122 0 0.8996022)
(345.7821 37.99211 0 17.35124 0 0.8996024)
(310.9471 34.85936 0 16.89882 0 0.9094143)
(310.9477 34.85943 0 16.89885 0 0.9094145)
(276.6929 31.59288 0 16.22454 0 0.9191246)
(276.6936 31.59295 0 16.22458 0 0.9191247)
(243.1789 28.23755 0 15.3355 0 0.9286861)
(243.1795 28.23763 0 15.33554 0 0.9286863)
(210.6537 24.84735 0 14.24949 0 0.9380247)
(210.6544 24.84742 0 14.24953 0 0.9380248)
(179.4805 21.48828 0 12.9981 0 0.9470308)
(179.4812 21.48836 0 12.99814 0 0.9470309)
(150.1483 18.23998 0 11.62945 0 0.9555559)
(150.149 18.24005 0 11.6295 0 0.955556)
(123.2465 15.19294 0 10.20833 0 0.9634202)
(123.2471 15.19301 0 10.20838 0 0.9634203)
(99.37508 12.43804 0 8.81072 0 0.9704384)
(99.37556 12.43809 0 8.810758 0 0.9704384)
(78.99657 10.04866 0 7.511339 0 0.9764634)
(78.99695 10.04871 0 7.511371 0 0.9764634)
(62.28405 8.061771 0 6.367436 0 0.9814313)
(62.28431 8.061802 0 6.367459 0 0.9814313)
(49.05714 6.469205 0 5.406925 0 0.9853828)
(49.05732 6.469227 0 5.406942 0 0.9853828)
(38.85128 5.225284 0 4.627765 0 0.988445)
(38.85139 5.225298 0 4.627776 0 0.988445)
(31.07251 4.265436 0 4.007539 0 0.9907874)
(31.07258 4.265444 0 4.007546 0 0.9907873)
(25.14392 3.524449 0 3.515979 0 0.9925777)
(25.14397 3.524454 0 3.515983 0 0.9925776)
(20.5864 2.947058 0 3.123995 0 0.9939575)
(20.58643 2.947061 0 3.123998 0 0.9939574)
(17.03652 2.4908 0 2.807652 0 0.9950349)
(17.03654 2.490802 0 2.807653 0 0.9950348)
(14.23084 2.124615 0 2.548694 0 0.9958885)
(14.23085 2.124615 0 2.548695 0 0.9958884)
(11.9814 1.826174 0 2.333641 0 0.9965747)
(11.98141 1.826175 0 2.333641 0 0.9965745)
(10.15396 1.579417 0 2.152606 0 0.9971336)
(10.15396 1.579418 0 2.152607 0 0.9971336)
(8.65174 1.372683 0 1.99831 0 0.9975946)
(8.651742 1.372684 0 1.998311 0 0.9975945)
(7.404028 1.19739 0 1.865337 0 0.9979787)
(7.404029 1.197391 0 1.865338 0 0.9979786)
(6.358507 1.04714 0 1.749613 0 0.9983017)
(6.358507 1.04714 0 1.749613 0 0.9983016)
(5.47596 0.9170989 0 1.648035 0 0.9985754)
(5.475959 0.9170988 0 1.648035 0 0.9985753)
(4.726657 0.8035777 0 1.558224 0 0.9988087)
(4.726657 0.8035777 0 1.558224 0 0.9988086)
(4.08782 0.7037365 0 1.478337 0 0.9990086)
(4.08782 0.7037364 0 1.478337 0 0.9990086)
(3.541948 0.6153954 0 1.406974 0 0.9991802)
(3.541948 0.6153953 0 1.406974 0 0.9991801)
(3.075299 0.5368537 0 1.343039 0 0.9993277)
(3.0753 0.5368537 0 1.343039 0 0.9993277)
(2.676069 0.466639 0 1.285499 0 0.9994547)
(2.67607 0.4666391 0 1.285499 0 0.9994547)
(2.334778 0.403488 0 1.233792 0 0.9995638)
(2.334779 0.4034882 0 1.233793 0 0.999564)
(2.043875 0.3462845 0 1.187709 0 0.9996573)
(2.043875 0.3462847 0 1.187709 0 0.9996576)
(1.796547 0.2939974 0 1.146794 0 0.9997371)
(1.796549 0.2939978 0 1.146795 0 0.9997375)
(1.589164 0.2460126 0 1.11128 0 0.9998045)
(1.589164 0.2460128 0 1.11128 0 0.9998051)
(1.414622 0.2014201 0 1.079663 0 0.999862)
(1.414621 0.2014202 0 1.079663 0 0.9998624)
(1.280594 0.1606865 0 1.056215 0 0.9999065)
(1.280592 0.1606863 0 1.056215 0 0.9999066)
(1.154038 0.1211445 0 1.027959 0 0.9999508)
(1.154037 0.121144 0 1.027959 0 0.9999501)
(1.122075 0.08738447 0 1.03342 0 0.9999573)
(1.122075 0.08738447 0 1.033419 0 0.9999553)
(0.9742038 0.04958917 0 0.981123 0 0.9999998)
(0.9742035 0.0495894 0 0.981123 0 1)
(1.035617 0.01734922 0 1.015006 0 0.9999865)
(1.035616 0.01734899 0 1.015005 0 0.9999855)
)
;

boundaryField
{
    leftandright
    {
        type            cyclic;
        value           nonuniform List<symmTensor> 
150
(
(1340.46 20.68863 0 0.6340692 0 0.6291499)
(1339.117 20.7077 0 0.6354949 0 0.6295462)
(1336.23 20.75831 0 0.6392135 0 0.6304082)
(1331.301 20.85691 0 0.6467392 0 0.6318285)
(1323.924 21.02778 0 0.6601781 0 0.6339103)
(1313.873 21.30618 0 0.6823514 0 0.6367633)
(1300.166 21.72436 0 0.7171328 0 0.6405259)
(1281.631 22.31034 0 0.7706881 0 0.6452997)
(1258.821 23.09796 0 0.8476033 0 0.6510025)
(1233.917 24.12596 0 0.9522811 0 0.6573518)
(1208.591 25.41683 0 1.090163 0 0.6640329)
(1183.615 26.97567 0 1.267818 0 0.6708177)
(1159.119 28.79409 0 1.492861 0 0.6775984)
(1134.844 30.85138 0 1.773657 0 0.6843722)
(1110.333 33.11419 0 2.118836 0 0.6912086)
(1085.077 35.53661 0 2.536653 0 0.698213)
(1058.62 38.06145 0 3.034258 0 0.7054948)
(1030.621 40.623 0 3.616939 0 0.7131448)
(1000.893 43.15062 0 4.287435 0 0.7212205)
(969.3988 45.57298 0 5.04538 0 0.7297418)
(936.2349 47.82187 0 5.886935 0 0.7386934)
(901.5938 49.83561 0 6.804647 0 0.7480324)
(865.7267 51.56139 0 7.787527 0 0.7576979)
(828.9088 52.95676 0 8.821342 0 0.7676204)
(791.4121 53.9903 0 9.889081 0 0.7777304)
(753.4868 54.64121 0 10.9714 0 0.7879633)
(715.3487 54.89823 0 12.04702 0 0.7982639)
(677.1758 54.75859 0 13.09314 0 0.8085877)
(639.1071 54.22679 0 14.08596 0 0.8189009)
(601.2464 53.31355 0 15.00123 0 0.8291803)
(563.666 52.03464 0 15.81472 0 0.8394112)
(526.4128 50.40994 0 16.50285 0 0.8495863)
(489.5148 48.46257 0 17.04319 0 0.8597033)
(452.9881 46.21825 0 17.41502 0 0.8697632)
(416.8443 43.70484 0 17.59998 0 0.8797673)
(381.0992 40.95213 0 17.58261 0 0.8897154)
(345.7818 37.99208 0 17.35123 0 0.8996023)
(310.9474 34.8594 0 16.89884 0 0.9094144)
(276.6932 31.59291 0 16.22456 0 0.9191246)
(243.1792 28.23759 0 15.33552 0 0.9286862)
(210.6541 24.84738 0 14.24951 0 0.9380248)
(179.4808 21.48832 0 12.99812 0 0.9470308)
(150.1487 18.24002 0 11.62948 0 0.9555559)
(123.2468 15.19297 0 10.20836 0 0.9634202)
(99.37532 12.43806 0 8.810739 0 0.9704384)
(78.99676 10.04868 0 7.511355 0 0.9764634)
(62.28418 8.061787 0 6.367447 0 0.9814313)
(49.05723 6.469216 0 5.406934 0 0.9853828)
(38.85134 5.225291 0 4.62777 0 0.988445)
(31.07254 4.26544 0 4.007543 0 0.9907873)
(25.14394 3.524452 0 3.515981 0 0.9925777)
(20.58642 2.947059 0 3.123996 0 0.9939575)
(17.03653 2.490801 0 2.807652 0 0.9950348)
(14.23085 2.124615 0 2.548695 0 0.9958884)
(11.9814 1.826174 0 2.333641 0 0.9965746)
(10.15396 1.579418 0 2.152606 0 0.9971336)
(8.651741 1.372683 0 1.99831 0 0.9975945)
(7.404028 1.197391 0 1.865337 0 0.9979787)
(6.358507 1.04714 0 1.749613 0 0.9983016)
(5.47596 0.9170989 0 1.648035 0 0.9985754)
(4.726657 0.8035777 0 1.558224 0 0.9988087)
(4.08782 0.7037365 0 1.478337 0 0.9990086)
(3.541948 0.6153954 0 1.406974 0 0.9991802)
(3.0753 0.5368537 0 1.343039 0 0.9993277)
(2.676069 0.4666391 0 1.285499 0 0.9994547)
(2.334778 0.4034881 0 1.233793 0 0.9995639)
(2.043875 0.3462846 0 1.187709 0 0.9996574)
(1.796548 0.2939976 0 1.146794 0 0.9997373)
(1.589164 0.2460127 0 1.11128 0 0.9998048)
(1.414621 0.2014202 0 1.079663 0 0.9998622)
(1.280593 0.1606864 0 1.056215 0 0.9999065)
(1.154037 0.1211443 0 1.027959 0 0.9999505)
(1.122075 0.08738447 0 1.033419 0 0.9999563)
(0.9742037 0.04958928 0 0.981123 0 1)
(1.035617 0.0173491 0 1.015005 0 0.999986)
(1340.46 20.68863 0 0.6340692 0 0.6291499)
(1339.117 20.7077 0 0.6354949 0 0.6295462)
(1336.23 20.75831 0 0.6392135 0 0.6304082)
(1331.301 20.85691 0 0.6467392 0 0.6318285)
(1323.924 21.02778 0 0.6601781 0 0.6339103)
(1313.873 21.30618 0 0.6823514 0 0.6367633)
(1300.166 21.72436 0 0.7171328 0 0.6405259)
(1281.631 22.31034 0 0.7706881 0 0.6452997)
(1258.821 23.09796 0 0.8476033 0 0.6510025)
(1233.917 24.12596 0 0.9522811 0 0.6573518)
(1208.591 25.41683 0 1.090163 0 0.6640329)
(1183.615 26.97567 0 1.267818 0 0.6708177)
(1159.119 28.79409 0 1.492861 0 0.6775984)
(1134.844 30.85138 0 1.773657 0 0.6843722)
(1110.333 33.11419 0 2.118836 0 0.6912086)
(1085.077 35.53661 0 2.536653 0 0.698213)
(1058.62 38.06145 0 3.034258 0 0.7054948)
(1030.621 40.623 0 3.616939 0 0.7131448)
(1000.893 43.15062 0 4.287435 0 0.7212205)
(969.3988 45.57298 0 5.04538 0 0.7297418)
(936.2349 47.82187 0 5.886935 0 0.7386934)
(901.5938 49.83561 0 6.804647 0 0.7480324)
(865.7267 51.56139 0 7.787527 0 0.7576979)
(828.9088 52.95676 0 8.821342 0 0.7676204)
(791.4121 53.9903 0 9.889081 0 0.7777304)
(753.4868 54.64121 0 10.9714 0 0.7879633)
(715.3487 54.89823 0 12.04702 0 0.7982639)
(677.1758 54.75859 0 13.09314 0 0.8085877)
(639.1071 54.22679 0 14.08596 0 0.8189009)
(601.2464 53.31355 0 15.00123 0 0.8291803)
(563.666 52.03464 0 15.81472 0 0.8394112)
(526.4128 50.40994 0 16.50285 0 0.8495863)
(489.5148 48.46257 0 17.04319 0 0.8597033)
(452.9881 46.21825 0 17.41502 0 0.8697632)
(416.8443 43.70484 0 17.59998 0 0.8797673)
(381.0992 40.95213 0 17.58261 0 0.8897154)
(345.7818 37.99208 0 17.35123 0 0.8996023)
(310.9474 34.8594 0 16.89884 0 0.9094144)
(276.6932 31.59291 0 16.22456 0 0.9191246)
(243.1792 28.23759 0 15.33552 0 0.9286862)
(210.6541 24.84738 0 14.24951 0 0.9380248)
(179.4808 21.48832 0 12.99812 0 0.9470308)
(150.1487 18.24002 0 11.62948 0 0.9555559)
(123.2468 15.19297 0 10.20836 0 0.9634202)
(99.37532 12.43806 0 8.810739 0 0.9704384)
(78.99676 10.04868 0 7.511355 0 0.9764634)
(62.28418 8.061787 0 6.367447 0 0.9814313)
(49.05723 6.469216 0 5.406934 0 0.9853828)
(38.85134 5.225291 0 4.62777 0 0.988445)
(31.07254 4.26544 0 4.007543 0 0.9907873)
(25.14394 3.524452 0 3.515981 0 0.9925777)
(20.58642 2.947059 0 3.123996 0 0.9939575)
(17.03653 2.490801 0 2.807652 0 0.9950348)
(14.23085 2.124615 0 2.548695 0 0.9958884)
(11.9814 1.826174 0 2.333641 0 0.9965746)
(10.15396 1.579418 0 2.152606 0 0.9971336)
(8.651741 1.372683 0 1.99831 0 0.9975945)
(7.404028 1.197391 0 1.865337 0 0.9979787)
(6.358507 1.04714 0 1.749613 0 0.9983016)
(5.47596 0.9170989 0 1.648035 0 0.9985754)
(4.726657 0.8035777 0 1.558224 0 0.9988087)
(4.08782 0.7037365 0 1.478337 0 0.9990086)
(3.541948 0.6153954 0 1.406974 0 0.9991802)
(3.0753 0.5368537 0 1.343039 0 0.9993277)
(2.676069 0.4666391 0 1.285499 0 0.9994547)
(2.334778 0.4034881 0 1.233793 0 0.9995639)
(2.043875 0.3462846 0 1.187709 0 0.9996574)
(1.796548 0.2939976 0 1.146794 0 0.9997373)
(1.589164 0.2460127 0 1.11128 0 0.9998048)
(1.414621 0.2014202 0 1.079663 0 0.9998622)
(1.280593 0.1606864 0 1.056215 0 0.9999065)
(1.154037 0.1211443 0 1.027959 0 0.9999505)
(1.122075 0.08738447 0 1.033419 0 0.9999563)
(0.9742037 0.04958928 0 0.981123 0 1)
(1.035617 0.0173491 0 1.015005 0 0.999986)
)
;
    }
    wall
    {
        type            zeroGradient;
    }
    frontAndBack
    {
        type            empty;
    }
    middle
    {
        type            symmetryPlane;
        value           nonuniform List<symmTensor> 2((1.035617 0 0 1.015006 0 0.9999865) (1.035616 0 0 1.015005 0 0.9999855));
    }
}


// ************************************************************************* //
