/*--------------------------------*- C++ -*----------------------------------*\
| =========                 |                                                 |
| \\      /  F ield         | foam-extend: Open Source CFD                    |
|  \\    /   O peration     | Version:     4.0                                |
|   \\  /    A nd           | Web:         http://www.foam-extend.org         |
|    \\/     M anipulation  |                                                 |
\*---------------------------------------------------------------------------*/
FoamFile
{
    version     2.0;
    format      ascii;
    class       volScalarField;
    location    "100";
    object      Ceps1;
}
// * * * * * * * * * * * * * * * * * * * * * * * * * * * * * * * * * * * * * //

dimensions      [0 0 0 0 0 0 0];

internalField   nonuniform List<scalar> 
150
(
5.161203
5.161203
3.173323
3.173323
2.599895
2.599895
2.336627
2.336627
2.187418
2.187418
2.091664
2.091664
2.024641
2.024641
1.974922
1.974922
1.935225
1.935225
1.901497
1.901497
1.871675
1.871675
1.844691
1.844691
1.819973
1.819973
1.797189
1.797189
1.776136
1.776135
1.756668
1.756668
1.738673
1.738673
1.722054
1.722054
1.70672
1.70672
1.692586
1.692586
1.679568
1.679568
1.667583
1.667583
1.656553
1.656553
1.646399
1.646399
1.637047
1.637047
1.628427
1.628427
1.620473
1.620473
1.613127
1.613127
1.606336
1.606336
1.600052
1.600052
1.59423
1.59423
1.588832
1.588832
1.583822
1.583822
1.579166
1.579166
1.574836
1.574836
1.570803
1.570803
1.567043
1.567043
1.563531
1.563531
1.560246
1.560246
1.557167
1.557167
1.554274
1.554274
1.551549
1.551549
1.548975
1.548975
1.546535
1.546535
1.544214
1.544214
1.541998
1.541998
1.539875
1.539875
1.537834
1.537834
1.535867
1.535867
1.533964
1.533964
1.532119
1.532119
1.530324
1.530324
1.528575
1.528575
1.526865
1.526865
1.525189
1.525189
1.523542
1.523542
1.521917
1.521917
1.520313
1.520313
1.518726
1.518726
1.517155
1.517155
1.515603
1.515603
1.514076
1.514076
1.512587
1.512587
1.511159
1.511159
1.509828
1.509828
1.508606
1.508606
1.507478
1.507478
1.506433
1.506433
1.505467
1.505467
1.504583
1.504583
1.503788
1.503788
1.5031
1.5031
1.502539
1.502539
1.502134
1.502134
1.501914
1.501914
)
;

boundaryField
{
    leftandright
    {
        type            cyclic;
        value           nonuniform List<scalar> 
150
(
5.161203
3.173323
2.599895
2.336627
2.187418
2.091664
2.024641
1.974922
1.935225
1.901497
1.871675
1.844691
1.819973
1.797189
1.776135
1.756668
1.738673
1.722054
1.70672
1.692586
1.679568
1.667583
1.656553
1.646399
1.637047
1.628427
1.620473
1.613127
1.606336
1.600052
1.59423
1.588832
1.583822
1.579166
1.574836
1.570803
1.567043
1.563531
1.560246
1.557167
1.554274
1.551549
1.548975
1.546535
1.544214
1.541998
1.539875
1.537834
1.535867
1.533964
1.532119
1.530324
1.528575
1.526865
1.525189
1.523542
1.521917
1.520313
1.518726
1.517155
1.515603
1.514076
1.512587
1.511159
1.509828
1.508606
1.507478
1.506433
1.505467
1.504583
1.503788
1.5031
1.502539
1.502134
1.501914
5.161203
3.173323
2.599895
2.336627
2.187418
2.091664
2.024641
1.974922
1.935225
1.901497
1.871675
1.844691
1.819973
1.797189
1.776135
1.756668
1.738673
1.722054
1.70672
1.692586
1.679568
1.667583
1.656553
1.646399
1.637047
1.628427
1.620473
1.613127
1.606336
1.600052
1.59423
1.588832
1.583822
1.579166
1.574836
1.570803
1.567043
1.563531
1.560246
1.557167
1.554274
1.551549
1.548975
1.546535
1.544214
1.541998
1.539875
1.537834
1.535867
1.533964
1.532119
1.530324
1.528575
1.526865
1.525189
1.523542
1.521917
1.520313
1.518726
1.517155
1.515603
1.514076
1.512587
1.511159
1.509828
1.508606
1.507478
1.506433
1.505467
1.504583
1.503788
1.5031
1.502539
1.502134
1.501914
)
;
    }
    wall
    {
        type            calculated;
        value           uniform 1.463;
    }
    frontAndBack
    {
        type            empty;
    }
    middle
    {
        type            symmetryPlane;
        value           nonuniform List<scalar> 2(1.501914 1.501914);
    }
}


// ************************************************************************* //
