/*--------------------------------*- C++ -*----------------------------------*\
| =========                 |                                                 |
| \\      /  F ield         | foam-extend: Open Source CFD                    |
|  \\    /   O peration     | Version:     4.0                                |
|   \\  /    A nd           | Web:         http://www.foam-extend.org         |
|    \\/     M anipulation  |                                                 |
\*---------------------------------------------------------------------------*/
FoamFile
{
    version     2.0;
    format      ascii;
    class       volSymmTensorField;
    location    "100";
    object      DiffC;
}
// * * * * * * * * * * * * * * * * * * * * * * * * * * * * * * * * * * * * * //

dimensions      [0 0 -1 0 0 0 0];

internalField   nonuniform List<symmTensor> 
150
(
(-84.40185 1.199436 0 0.08964131 0 0.02491971)
(-84.39043 1.199282 0 0.08963829 0 0.02491949)
(-84.00447 1.738941 0 0.1263429 0 0.02534622)
(-84.00647 1.739145 0 0.1263455 0 0.02534663)
(-97.59558 2.338862 0 0.1863079 0 0.02649115)
(-97.59883 2.33906 0 0.1863105 0 0.02649079)
(-102.3511 3.133881 0 0.2577535 0 0.02745534)
(-102.3522 3.134026 0 0.2577556 0 0.02745457)
(-96.96854 4.16957 0 0.3395862 0 0.02805543)
(-96.96758 4.169632 0 0.3395875 0 0.02805511)
(-120.003 4.794802 0 0.4382598 0 0.0291674)
(-120.0023 4.794795 0 0.4382606 0 0.02916752)
(-142.6705 5.061819 0 0.5875457 0 0.02830895)
(-142.6709 5.061776 0 0.5875464 0 0.02830894)
(-104.0993 5.372212 0 0.6452638 0 0.02143444)
(-104.1005 5.372166 0 0.6452648 0 0.0214343)
(-26.30437 5.66744 0 0.6748994 0 0.01005459)
(-26.30665 5.667407 0 0.6749007 0 0.01005478)
(21.8135 5.391452 0 0.7139558 0 0.0001833567)
(21.81229 5.391415 0 0.7139568 0 0.0001836167)
(38.15344 4.685949 0 0.7592635 0 -0.005514138)
(38.15303 4.685902 0 0.7592638 0 -0.005513847)
(36.89738 3.77796 0 0.8044085 0 -0.007370784)
(36.89714 3.777912 0 0.8044081 0 -0.007370505)
(27.98258 2.773501 0 0.8410423 0 -0.006717147)
(27.98263 2.773456 0 0.8410415 0 -0.00671731)
(17.28558 1.726612 0 0.8606715 0 -0.004878712)
(17.28625 1.72657 0 0.8606702 0 -0.004878949)
(7.916127 0.6842717 0 0.8563019 0 -0.00282624)
(7.917811 0.6842491 0 0.8563012 0 -0.002826484)
(1.258948 -0.3014085 0 0.8234641 0 -0.001135169)
(1.254084 -0.3013671 0 0.8234675 0 -0.001134375)
(-2.410347 -1.178086 0 0.7607797 0 -5.17424e-05)
(-2.409048 -1.178116 0 0.7607779 0 -5.202102e-05)
(-3.446846 -1.903144 0 0.6700054 0 0.0004009576)
(-3.446025 -1.903175 0 0.6700028 0 0.0004006611)
(-2.572071 -2.450132 0 0.5556893 0 0.0003428194)
(-2.571735 -2.450148 0 0.5556875 0 0.0003434173)
(-0.5694342 -2.811629 0 0.4243816 0 -4.93469e-05)
(-0.5691515 -2.811639 0 0.424379 0 -4.962542e-05)
(1.864594 -2.997114 0 0.2837233 0 -0.0006007023)
(1.864405 -2.997131 0 0.283721 0 -0.0006010324)
(4.220162 -3.028782 0 0.1414903 0 -0.001169431)
(4.220638 -3.028778 0 0.1414899 0 -0.00116909)
(6.188847 -2.93577 0 0.004885404 0 -0.001661506)
(6.188664 -2.935758 0 0.004886456 0 -0.001661134)
(7.637104 -2.749482 0 -0.1200782 0 -0.002029661)
(7.637066 -2.749488 0 -0.120081 0 -0.00203015)
(8.548203 -2.501867 0 -0.2297627 0 -0.002262586)
(8.548237 -2.501875 0 -0.2297669 0 -0.002262059)
(8.974232 -2.221226 0 -0.32255 0 -0.002367702)
(8.97439 -2.221238 0 -0.3225502 0 -0.002367929)
(9.010529 -1.928845 0 -0.3976032 0 -0.002369403)
(9.010561 -1.928819 0 -0.3975974 0 -0.002369422)
(8.75661 -1.640209 0 -0.4548302 0 -0.00229259)
(8.75625 -1.640147 0 -0.4548124 0 -0.002292546)
(8.304562 -1.365927 0 -0.4947149 0 -0.002163205)
(8.304515 -1.365994 0 -0.4947327 0 -0.002163212)
(7.731751 -1.11325 0 -0.518432 0 -0.002002728)
(7.731842 -1.113278 0 -0.5184395 0 -0.002002749)
(7.101008 -0.8858175 0 -0.5273439 0 -0.001828051)
(7.100869 -0.8857886 0 -0.5273398 0 -0.00182805)
(6.459739 -0.6850634 0 -0.523104 0 -0.001652939)
(6.459748 -0.6850908 0 -0.52311 0 -0.001652967)
(5.841265 -0.5108652 0 -0.5075058 0 -0.001486184)
(5.841012 -0.5108699 0 -0.5075065 0 -0.001486193)
(5.269658 -0.3615878 0 -0.4822353 0 -0.001334909)
(5.269756 -0.3615723 0 -0.4822263 0 -0.001334946)
(4.761641 -0.2349237 0 -0.4489375 0 -0.001202734)
(4.761347 -0.2349551 0 -0.4489517 0 -0.001202618)
(4.32654 -0.127876 0 -0.4089395 0 -0.001092868)
(4.326434 -0.1278847 0 -0.4089433 0 -0.001093182)
(3.973899 -0.0370616 0 -0.3632882 0 -0.001007623)
(3.97386 -0.03704426 0 -0.3632796 0 -0.001007552)
(3.7108 0.04139301 0 -0.3124326 0 -0.0009484495)
(3.710761 0.04135587 0 -0.3124495 0 -0.0009485992)
(3.544151 0.11115 0 -0.2565165 0 -0.0009176915)
(3.543951 0.1111454 0 -0.2565151 0 -0.0009175099)
(3.479372 0.1759399 0 -0.1951316 0 -0.0009164509)
(3.479351 0.1759207 0 -0.1951452 0 -0.0009166789)
(3.513509 0.2382635 0 -0.1280461 0 -0.0009439607)
(3.513237 0.238259 0 -0.1280506 0 -0.0009438008)
(3.6231 0.2979885 0 -0.05622024 0 -0.0009929372)
(3.623146 0.2979699 0 -0.05622901 0 -0.0009930587)
(3.752271 0.3507063 0 0.01669353 0 -0.001046982)
(3.751936 0.3506933 0 0.01669033 0 -0.001047065)
(3.807317 0.3870873 0 0.08309722 0 -0.001078668)
(3.807351 0.3870671 0 0.08307814 0 -0.001078615)
(3.686751 0.396075 0 0.1327221 0 -0.001057537)
(3.686633 0.3960684 0 0.1327186 0 -0.001057534)
(3.333021 0.3714315 0 0.1571034 0 -0.000966459)
(3.332954 0.371421 0 0.1570963 0 -0.0009664001)
(2.781076 0.3177722 0 0.1549913 0 -0.0008139998)
(2.781059 0.3177711 0 0.1549902 0 -0.0008140561)
(2.144386 0.2494335 0 0.1336618 0 -0.0006329993)
(2.144367 0.2494315 0 0.1336594 0 -0.0006329995)
(1.548026 0.18251 0 0.1043451 0 -0.0004600247)
(1.54802 0.1825091 0 0.104344 0 -0.0004600609)
(1.068054 0.1273064 0 0.07620001 0 -0.0003192377)
(1.068058 0.1273068 0 0.07620028 0 -0.0003191421)
(0.7199875 0.08664648 0 0.05363109 0 -0.0002158728)
(0.7199814 0.08664614 0 0.05363057 0 -0.0002159321)
(0.4829131 0.05864086 0 0.03724315 0 -0.0001452229)
(0.4829128 0.05864084 0 0.0372431 0 -0.0001451679)
(0.3261279 0.0399512 0 0.02591552 0 -9.825376e-05)
(0.3261253 0.03995097 0 0.02591529 0 -9.82029e-05)
(0.2231119 0.02757192 0 0.01822136 0 -6.728973e-05)
(0.2231136 0.02757209 0 0.01822152 0 -6.733265e-05)
(0.1549921 0.01932076 0 0.01299172 0 -4.685282e-05)
(0.1549884 0.01932064 0 0.0129916 0 -4.678482e-05)
(0.1093604 0.01375043 0 0.009402708 0 -3.307853e-05)
(0.1093632 0.01375031 0 0.009402588 0 -3.311427e-05)
(0.07833651 0.009933216 0 0.006906856 0 -2.374513e-05)
(0.07833527 0.009933092 0 0.006906735 0 -2.370518e-05)
(0.05692121 0.007277039 0 0.005146079 0 -1.730801e-05)
(0.05692075 0.00727675 0 0.005145783 0 -1.726982e-05)
(0.04192127 0.005402283 0 0.003886097 0 -1.273757e-05)
(0.04192139 0.005402463 0 0.003886286 0 -1.274449e-05)
(0.03127024 0.004061797 0 0.002973391 0 -9.540836e-06)
(0.03127061 0.004061811 0 0.002973409 0 -9.529423e-06)
(0.02360758 0.003091652 0 0.002303173 0 -7.202369e-06)
(0.02360736 0.003091662 0 0.002303186 0 -7.189365e-06)
(0.018043 0.002384772 0 0.001810986 0 -5.537396e-06)
(0.01804279 0.002384779 0 0.001810995 0 -5.535916e-06)
(0.01392638 0.001860968 0 0.00143971 0 -4.285914e-06)
(0.0139266 0.001860969 0 0.001439712 0 -4.240307e-06)
(0.01073953 0.001452194 0 0.00113703 0 -3.304397e-06)
(0.01073927 0.001452197 0 0.001137028 0 -3.308761e-06)
(0.008344012 0.001134514 0 0.0009345602 0 -2.587782e-06)
(0.008343809 0.001134497 0 0.0009346083 0 -2.581369e-06)
(0.006538883 0.0008844884 0 0.0007968499 0 -2.041261e-06)
(0.00653856 0.0008844299 0 0.0007966002 0 -2.066181e-06)
(0.005099204 0.0006840632 0 0.0006564534 0 -1.574004e-06)
(0.005099233 0.0006840541 0 0.0006565319 0 -1.62898e-06)
(0.004152785 0.0005508204 0 0.000591728 0 -1.273711e-06)
(0.004152376 0.0005507425 0 0.0005914821 0 -1.334279e-06)
(0.003105054 0.0004177889 0 0.000408273 0 -9.134386e-07)
(0.003105069 0.0004177718 0 0.0004083288 0 -1.026668e-06)
(0.003198124 0.0003970978 0 0.000633156 0 -9.916173e-07)
(0.003198119 0.0003970825 0 0.0006329689 0 -1.069906e-06)
(0.0008385392 0.0001916716 0 -0.0002114249 0 -1.271538e-07)
(0.0008388823 0.0001917057 0 -0.0002113586 0 -1.885705e-07)
(0.005356011 0.0004135112 0 0.001863482 0 -2.178523e-06)
(0.005356267 0.0004136295 0 0.001863476 0 -2.097575e-06)
(-0.005481717 -0.0001107937 0 -0.002784091 0 1.539423e-06)
(-0.005481762 -0.0001108077 0 -0.002783788 0 2.063794e-06)
(0.009414765 0.000325093 0 0.003857762 0 -2.475306e-06)
(0.009414778 0.0003250268 0 0.003857676 0 -2.731712e-06)
(-0.002536876 -6.672051e-05 0 -0.001399598 0 4.712891e-07)
(-0.0025366 -6.664759e-05 0 -0.001399509 0 6.883164e-07)
)
;

boundaryField
{
    leftandright
    {
        type            cyclic;
        value           nonuniform List<symmTensor> 
150
(
(-84.39614 1.199359 0 0.0896398 0 0.0249196)
(-84.00547 1.739043 0 0.1263442 0 0.02534643)
(-97.59721 2.338961 0 0.1863092 0 0.02649097)
(-102.3516 3.133953 0 0.2577545 0 0.02745496)
(-96.96806 4.169601 0 0.3395868 0 0.02805527)
(-120.0026 4.794798 0 0.4382602 0 0.02916746)
(-142.6707 5.061798 0 0.587546 0 0.02830894)
(-104.0999 5.372189 0 0.6452643 0 0.02143437)
(-26.30551 5.667424 0 0.6749001 0 0.01005469)
(21.81289 5.391433 0 0.7139563 0 0.0001834867)
(38.15324 4.685926 0 0.7592637 0 -0.005513993)
(36.89726 3.777936 0 0.8044083 0 -0.007370644)
(27.9826 2.773478 0 0.8410419 0 -0.006717228)
(17.28592 1.726591 0 0.8606709 0 -0.00487883)
(7.916969 0.6842604 0 0.8563015 0 -0.002826362)
(1.256516 -0.3013878 0 0.8234658 0 -0.001134772)
(-2.409698 -1.178101 0 0.7607788 0 -5.188171e-05)
(-3.446435 -1.90316 0 0.6700041 0 0.0004008094)
(-2.571903 -2.45014 0 0.5556884 0 0.0003431183)
(-0.5692929 -2.811634 0 0.4243803 0 -4.948616e-05)
(1.864499 -2.997122 0 0.2837222 0 -0.0006008674)
(4.2204 -3.02878 0 0.1414901 0 -0.00116926)
(6.188756 -2.935764 0 0.00488593 0 -0.00166132)
(7.637085 -2.749485 0 -0.1200796 0 -0.002029906)
(8.54822 -2.501871 0 -0.2297648 0 -0.002262323)
(8.974311 -2.221232 0 -0.3225501 0 -0.002367816)
(9.010545 -1.928832 0 -0.3976003 0 -0.002369412)
(8.75643 -1.640178 0 -0.4548213 0 -0.002292568)
(8.304538 -1.36596 0 -0.4947238 0 -0.002163209)
(7.731796 -1.113264 0 -0.5184357 0 -0.002002738)
(7.100938 -0.885803 0 -0.5273419 0 -0.00182805)
(6.459744 -0.6850771 0 -0.523107 0 -0.001652953)
(5.841138 -0.5108676 0 -0.5075061 0 -0.001486189)
(5.269707 -0.3615801 0 -0.4822308 0 -0.001334927)
(4.761494 -0.2349394 0 -0.4489446 0 -0.001202676)
(4.326487 -0.1278804 0 -0.4089414 0 -0.001093025)
(3.97388 -0.03705293 0 -0.3632839 0 -0.001007587)
(3.710781 0.04137444 0 -0.312441 0 -0.0009485243)
(3.544051 0.1111477 0 -0.2565158 0 -0.0009176007)
(3.479362 0.1759303 0 -0.1951384 0 -0.0009165649)
(3.513373 0.2382613 0 -0.1280483 0 -0.0009438808)
(3.623123 0.2979792 0 -0.05622463 0 -0.0009929979)
(3.752104 0.3506998 0 0.01669193 0 -0.001047023)
(3.807334 0.3870772 0 0.08308768 0 -0.001078642)
(3.686692 0.3960717 0 0.1327203 0 -0.001057536)
(3.332987 0.3714262 0 0.1570998 0 -0.0009664296)
(2.781068 0.3177717 0 0.1549908 0 -0.000814028)
(2.144376 0.2494325 0 0.1336606 0 -0.0006329994)
(1.548023 0.1825095 0 0.1043445 0 -0.0004600428)
(1.068056 0.1273066 0 0.07620014 0 -0.0003191899)
(0.7199845 0.08664631 0 0.05363083 0 -0.0002159024)
(0.482913 0.05864085 0 0.03724313 0 -0.0001451954)
(0.3261266 0.03995109 0 0.0259154 0 -9.822833e-05)
(0.2231127 0.027572 0 0.01822144 0 -6.731119e-05)
(0.1549902 0.0193207 0 0.01299166 0 -4.681882e-05)
(0.1093618 0.01375037 0 0.009402648 0 -3.30964e-05)
(0.07833589 0.009933154 0 0.006906795 0 -2.372515e-05)
(0.05692098 0.007276894 0 0.005145931 0 -1.728891e-05)
(0.04192133 0.005402373 0 0.003886192 0 -1.274103e-05)
(0.03127042 0.004061804 0 0.0029734 0 -9.53513e-06)
(0.02360747 0.003091657 0 0.00230318 0 -7.195867e-06)
(0.01804289 0.002384775 0 0.00181099 0 -5.536656e-06)
(0.01392649 0.001860969 0 0.001439711 0 -4.26311e-06)
(0.0107394 0.001452195 0 0.001137029 0 -3.306579e-06)
(0.00834391 0.001134506 0 0.0009345843 0 -2.584576e-06)
(0.006538722 0.0008844592 0 0.0007967251 0 -2.053721e-06)
(0.005099219 0.0006840586 0 0.0006564926 0 -1.601492e-06)
(0.00415258 0.0005507815 0 0.000591605 0 -1.303995e-06)
(0.003105062 0.0004177804 0 0.0004083009 0 -9.700534e-07)
(0.003198121 0.0003970902 0 0.0006330624 0 -1.030762e-06)
(0.0008387108 0.0001916887 0 -0.0002113917 0 -1.578622e-07)
(0.005356139 0.0004135704 0 0.001863479 0 -2.138049e-06)
(-0.005481739 -0.0001108007 0 -0.00278394 0 1.801609e-06)
(0.009414772 0.0003250599 0 0.003857719 0 -2.603509e-06)
(-0.002536738 -6.668405e-05 0 -0.001399554 0 5.798028e-07)
(-84.39614 1.199359 0 0.0896398 0 0.0249196)
(-84.00547 1.739043 0 0.1263442 0 0.02534643)
(-97.59721 2.338961 0 0.1863092 0 0.02649097)
(-102.3516 3.133953 0 0.2577545 0 0.02745496)
(-96.96806 4.169601 0 0.3395868 0 0.02805527)
(-120.0026 4.794798 0 0.4382602 0 0.02916746)
(-142.6707 5.061798 0 0.587546 0 0.02830894)
(-104.0999 5.372189 0 0.6452643 0 0.02143437)
(-26.30551 5.667424 0 0.6749001 0 0.01005469)
(21.81289 5.391433 0 0.7139563 0 0.0001834867)
(38.15324 4.685926 0 0.7592637 0 -0.005513993)
(36.89726 3.777936 0 0.8044083 0 -0.007370644)
(27.9826 2.773478 0 0.8410419 0 -0.006717228)
(17.28592 1.726591 0 0.8606709 0 -0.00487883)
(7.916969 0.6842604 0 0.8563015 0 -0.002826362)
(1.256516 -0.3013878 0 0.8234658 0 -0.001134772)
(-2.409698 -1.178101 0 0.7607788 0 -5.188171e-05)
(-3.446435 -1.90316 0 0.6700041 0 0.0004008094)
(-2.571903 -2.45014 0 0.5556884 0 0.0003431183)
(-0.5692929 -2.811634 0 0.4243803 0 -4.948616e-05)
(1.864499 -2.997122 0 0.2837222 0 -0.0006008674)
(4.2204 -3.02878 0 0.1414901 0 -0.00116926)
(6.188756 -2.935764 0 0.00488593 0 -0.00166132)
(7.637085 -2.749485 0 -0.1200796 0 -0.002029906)
(8.54822 -2.501871 0 -0.2297648 0 -0.002262323)
(8.974311 -2.221232 0 -0.3225501 0 -0.002367816)
(9.010545 -1.928832 0 -0.3976003 0 -0.002369412)
(8.75643 -1.640178 0 -0.4548213 0 -0.002292568)
(8.304538 -1.36596 0 -0.4947238 0 -0.002163209)
(7.731796 -1.113264 0 -0.5184357 0 -0.002002738)
(7.100938 -0.885803 0 -0.5273419 0 -0.00182805)
(6.459744 -0.6850771 0 -0.523107 0 -0.001652953)
(5.841138 -0.5108676 0 -0.5075061 0 -0.001486189)
(5.269707 -0.3615801 0 -0.4822308 0 -0.001334927)
(4.761494 -0.2349394 0 -0.4489446 0 -0.001202676)
(4.326487 -0.1278804 0 -0.4089414 0 -0.001093025)
(3.97388 -0.03705293 0 -0.3632839 0 -0.001007587)
(3.710781 0.04137444 0 -0.312441 0 -0.0009485243)
(3.544051 0.1111477 0 -0.2565158 0 -0.0009176007)
(3.479362 0.1759303 0 -0.1951384 0 -0.0009165649)
(3.513373 0.2382613 0 -0.1280483 0 -0.0009438808)
(3.623123 0.2979792 0 -0.05622463 0 -0.0009929979)
(3.752104 0.3506998 0 0.01669193 0 -0.001047023)
(3.807334 0.3870772 0 0.08308768 0 -0.001078642)
(3.686692 0.3960717 0 0.1327203 0 -0.001057536)
(3.332987 0.3714262 0 0.1570998 0 -0.0009664296)
(2.781068 0.3177717 0 0.1549908 0 -0.000814028)
(2.144376 0.2494325 0 0.1336606 0 -0.0006329994)
(1.548023 0.1825095 0 0.1043445 0 -0.0004600428)
(1.068056 0.1273066 0 0.07620014 0 -0.0003191899)
(0.7199845 0.08664631 0 0.05363083 0 -0.0002159024)
(0.482913 0.05864085 0 0.03724313 0 -0.0001451954)
(0.3261266 0.03995109 0 0.0259154 0 -9.822833e-05)
(0.2231127 0.027572 0 0.01822144 0 -6.731119e-05)
(0.1549902 0.0193207 0 0.01299166 0 -4.681882e-05)
(0.1093618 0.01375037 0 0.009402648 0 -3.30964e-05)
(0.07833589 0.009933154 0 0.006906795 0 -2.372515e-05)
(0.05692098 0.007276894 0 0.005145931 0 -1.728891e-05)
(0.04192133 0.005402373 0 0.003886192 0 -1.274103e-05)
(0.03127042 0.004061804 0 0.0029734 0 -9.53513e-06)
(0.02360747 0.003091657 0 0.00230318 0 -7.195867e-06)
(0.01804289 0.002384775 0 0.00181099 0 -5.536656e-06)
(0.01392649 0.001860969 0 0.001439711 0 -4.26311e-06)
(0.0107394 0.001452195 0 0.001137029 0 -3.306579e-06)
(0.00834391 0.001134506 0 0.0009345843 0 -2.584576e-06)
(0.006538722 0.0008844592 0 0.0007967251 0 -2.053721e-06)
(0.005099219 0.0006840586 0 0.0006564926 0 -1.601492e-06)
(0.00415258 0.0005507815 0 0.000591605 0 -1.303995e-06)
(0.003105062 0.0004177804 0 0.0004083009 0 -9.700534e-07)
(0.003198121 0.0003970902 0 0.0006330624 0 -1.030762e-06)
(0.0008387108 0.0001916887 0 -0.0002113917 0 -1.578622e-07)
(0.005356139 0.0004135704 0 0.001863479 0 -2.138049e-06)
(-0.005481739 -0.0001108007 0 -0.00278394 0 1.801609e-06)
(0.009414772 0.0003250599 0 0.003857719 0 -2.603509e-06)
(-0.002536738 -6.668405e-05 0 -0.001399554 0 5.798028e-07)
)
;
    }
    wall
    {
        type            calculated;
        value           nonuniform List<symmTensor> 2((-84.40185 1.199436 0 0.08964131 0 0.02491971) (-84.39043 1.199282 0 0.08963829 0 0.02491949));
    }
    frontAndBack
    {
        type            empty;
    }
    middle
    {
        type            symmetryPlane;
        value           nonuniform List<symmTensor> 2((-0.002536876 0 0 -0.001399598 0 4.712891e-07) (-0.0025366 0 0 -0.001399509 0 6.883164e-07));
    }
}


// ************************************************************************* //
