/*--------------------------------*- C++ -*----------------------------------*\
| =========                 |                                                 |
| \\      /  F ield         | foam-extend: Open Source CFD                    |
|  \\    /   O peration     | Version:     4.0                                |
|   \\  /    A nd           | Web:         http://www.foam-extend.org         |
|    \\/     M anipulation  |                                                 |
\*---------------------------------------------------------------------------*/
FoamFile
{
    version     2.0;
    format      ascii;
    class       volScalarField;
    location    "100";
    object      epsilon;
}
// * * * * * * * * * * * * * * * * * * * * * * * * * * * * * * * * * * * * * //

dimensions      [0 2 -3 0 0 0 0];

internalField   nonuniform List<scalar> 
150
(
84.23016
84.23017
70.65333
70.65334
61.66564
61.66565
56.78696
56.78696
55.61481
55.61482
57.71005
57.71005
62.57061
62.57061
69.68377
69.68377
77.54269
77.54269
84.85686
84.85686
90.75006
90.75006
94.72949
94.7295
96.6355
96.6355
96.56309
96.56309
94.77344
94.77345
91.61238
91.61238
87.446
87.446
82.61699
82.61699
77.41983
77.41983
72.09091
72.09091
66.80867
66.80867
61.6996
61.6996
56.84699
56.84699
52.30014
52.30014
48.08296
48.08296
44.20119
44.20119
40.6482
40.6482
37.40939
37.40939
34.46539
34.46539
31.79435
31.79435
29.37353
29.37353
27.18034
27.18034
25.19298
25.19298
23.39085
23.39085
21.75476
21.75476
20.26698
20.26699
18.91124
18.91124
17.67267
17.67267
16.53771
16.53771
15.49406
15.49406
14.53051
14.53051
13.63699
13.63699
12.80444
12.80444
12.02485
12.02485
11.29128
11.29128
10.59789
10.59789
9.939916
9.939915
9.313643
9.313643
8.716233
8.716233
8.145562
8.145562
7.600037
7.600037
7.078431
7.078431
6.57977
6.57977
6.103258
6.103258
5.648225
5.648225
5.21411
5.21411
4.800444
4.800444
4.406851
4.406851
4.033049
4.033048
3.678846
3.678846
3.344145
3.344145
3.028929
3.028929
2.733246
2.733246
2.457183
2.457183
2.20082
2.20082
1.964283
1.964283
1.747871
1.747871
1.55208
1.552079
1.377554
1.377554
1.225016
1.225016
1.095207
1.095207
0.988863
0.988863
0.9067737
0.9067737
0.8499982
0.8499982
0.8201515
0.8201515
)
;

boundaryField
{
    leftandright
    {
        type            cyclic;
        value           nonuniform List<scalar> 
150
(
84.23017
70.65334
61.66564
56.78696
55.61481
57.71005
62.57061
69.68377
77.54269
84.85686
90.75006
94.72949
96.6355
96.56309
94.77345
91.61238
87.446
82.61699
77.41983
72.09091
66.80867
61.6996
56.84699
52.30014
48.08296
44.20119
40.6482
37.40939
34.46539
31.79435
29.37353
27.18034
25.19298
23.39085
21.75476
20.26698
18.91124
17.67267
16.53771
15.49406
14.53051
13.63699
12.80444
12.02485
11.29128
10.59789
9.939916
9.313643
8.716233
8.145562
7.600037
7.078431
6.57977
6.103258
5.648225
5.21411
4.800444
4.406851
4.033049
3.678846
3.344145
3.028929
2.733246
2.457183
2.20082
1.964283
1.747871
1.552079
1.377554
1.225016
1.095207
0.988863
0.9067737
0.8499982
0.8201515
84.23017
70.65334
61.66564
56.78696
55.61481
57.71005
62.57061
69.68377
77.54269
84.85686
90.75006
94.72949
96.6355
96.56309
94.77345
91.61238
87.446
82.61699
77.41983
72.09091
66.80867
61.6996
56.84699
52.30014
48.08296
44.20119
40.6482
37.40939
34.46539
31.79435
29.37353
27.18034
25.19298
23.39085
21.75476
20.26698
18.91124
17.67267
16.53771
15.49406
14.53051
13.63699
12.80444
12.02485
11.29128
10.59789
9.939916
9.313643
8.716233
8.145562
7.600037
7.078431
6.57977
6.103258
5.648225
5.21411
4.800444
4.406851
4.033049
3.678846
3.344145
3.028929
2.733246
2.457183
2.20082
1.964283
1.747871
1.552079
1.377554
1.225016
1.095207
0.988863
0.9067737
0.8499982
0.8201515
)
;
    }
    wall
    {
        type            groovyBC;
        refValue        nonuniform List<scalar> 2(93.90461 93.90462);
        refGradient     uniform 0;
        valueFraction   uniform 1;
        value           nonuniform List<scalar> 2(93.90461 93.90462);
        valueExpression "2*nu*internalField(k)/sqr(mag(delta()))";
        gradientExpression "0";
        fractionExpression "1";
        evaluateDuringConstruction 0;
        variables       "";
        timelines       (
);
        lookuptables    (
);
    }
    frontAndBack
    {
        type            empty;
    }
    middle
    {
        type            symmetryPlane;
        value           nonuniform List<scalar> 2(0.8201515 0.8201515);
    }
}


// ************************************************************************* //
