/*--------------------------------*- C++ -*----------------------------------*\
| =========                 |                                                 |
| \\      /  F ield         | foam-extend: Open Source CFD                    |
|  \\    /   O peration     | Version:     4.0                                |
|   \\  /    A nd           | Web:         http://www.foam-extend.org         |
|    \\/     M anipulation  |                                                 |
\*---------------------------------------------------------------------------*/
FoamFile
{
    version     2.0;
    format      ascii;
    class       volScalarField;
    location    "100";
    object      epsilonV;
}
// * * * * * * * * * * * * * * * * * * * * * * * * * * * * * * * * * * * * * //

dimensions      [0 2 -3 0 0 0 0];

internalField   nonuniform List<scalar> 
150
(
3.295376e-05
3.295371e-05
0.001681771
0.001681768
0.01018281
0.0101828
0.03241885
0.03241882
0.07316322
0.07316317
0.132608
0.132608
0.2063551
0.2063552
0.3361762
0.3361764
0.4996747
0.4996753
0.6858159
0.685817
0.8927562
0.8927577
1.119293
1.119295
1.364013
1.364015
1.624618
1.624621
1.89757
1.897573
2.178013
2.178016
2.459982
2.459985
2.73683
2.736834
3.00178
3.001783
3.248465
3.248468
3.471363
3.471366
3.666057
3.66606
3.829332
3.829334
3.959129
3.959132
4.054433
4.054435
4.115068
4.11507
4.141476
4.141478
4.134556
4.134559
4.095545
4.095549
4.025926
4.02593
3.927372
3.927375
3.801703
3.801708
3.650879
3.650883
3.476982
3.476986
3.282235
3.28224
3.06902
3.069025
2.839919
2.839924
2.597776
2.597782
2.345805
2.345811
2.087728
2.087734
1.827965
1.827971
1.571817
1.571823
1.325517
1.325523
1.095951
1.095956
0.889807
0.8898113
0.7122463
0.7122497
0.5655669
0.5655692
0.4486962
0.4486977
0.3578761
0.357877
0.2880947
0.2880953
0.2344191
0.2344194
0.1927306
0.1927308
0.1598955
0.1598956
0.1336363
0.1336363
0.1123237
0.1123238
0.09479047
0.09479052
0.08019159
0.08019163
0.06790768
0.06790772
0.0574783
0.05747829
0.04855686
0.04855686
0.04087958
0.04087958
0.03424349
0.03424348
0.02849265
0.02849265
0.02350436
0.02350436
0.0191704
0.01917041
0.01540898
0.01540899
0.01215848
0.01215849
0.009357606
0.009357615
0.006981343
0.006981347
0.0049486
0.0049486
0.003389541
0.003389536
0.001833054
0.001833046
0.001586408
0.001586407
-0.0004683025
-0.0004683012
0.0005207669
0.000520766
)
;

boundaryField
{
    leftandright
    {
        type            cyclic;
        value           nonuniform List<scalar> 
150
(
3.295374e-05
0.001681769
0.01018281
0.03241883
0.07316319
0.132608
0.2063552
0.3361763
0.499675
0.6858164
0.8927569
1.119294
1.364014
1.624619
1.897571
2.178015
2.459984
2.736832
3.001782
3.248467
3.471364
3.666058
3.829333
3.95913
4.054434
4.115069
4.141477
4.134558
4.095547
4.025928
3.927374
3.801706
3.650881
3.476984
3.282237
3.069022
2.839921
2.597779
2.345808
2.087731
1.827968
1.57182
1.32552
1.095953
0.8898091
0.712248
0.5655681
0.4486969
0.3578765
0.288095
0.2344192
0.1927307
0.1598955
0.1336363
0.1123238
0.09479049
0.08019161
0.0679077
0.05747829
0.04855686
0.04087958
0.03424348
0.02849265
0.02350436
0.0191704
0.01540898
0.01215849
0.00935761
0.006981345
0.0049486
0.003389539
0.00183305
0.001586408
-0.0004683018
0.0005207665
3.295374e-05
0.001681769
0.01018281
0.03241883
0.07316319
0.132608
0.2063552
0.3361763
0.499675
0.6858164
0.8927569
1.119294
1.364014
1.624619
1.897571
2.178015
2.459984
2.736832
3.001782
3.248467
3.471364
3.666058
3.829333
3.95913
4.054434
4.115069
4.141477
4.134558
4.095547
4.025928
3.927374
3.801706
3.650881
3.476984
3.282237
3.069022
2.839921
2.597779
2.345808
2.087731
1.827968
1.57182
1.32552
1.095953
0.8898091
0.712248
0.5655681
0.4486969
0.3578765
0.288095
0.2344192
0.1927307
0.1598955
0.1336363
0.1123238
0.09479049
0.08019161
0.0679077
0.05747829
0.04855686
0.04087958
0.03424348
0.02849265
0.02350436
0.0191704
0.01540898
0.01215849
0.00935761
0.006981345
0.0049486
0.003389539
0.00183305
0.001586408
-0.0004683018
0.0005207665
)
;
    }
    wall
    {
        type            calculated;
        value           nonuniform List<scalar> 2(1.539131e-09 1.539128e-09);
    }
    frontAndBack
    {
        type            empty;
    }
    middle
    {
        type            symmetryPlane;
        value           nonuniform List<scalar> 2(0.0005207669 0.000520766);
    }
}


// ************************************************************************* //
