/*--------------------------------*- C++ -*----------------------------------*\
| =========                 |                                                 |
| \\      /  F ield         | foam-extend: Open Source CFD                    |
|  \\    /   O peration     | Version:     4.0                                |
|   \\  /    A nd           | Web:         http://www.foam-extend.org         |
|    \\/     M anipulation  |                                                 |
\*---------------------------------------------------------------------------*/
FoamFile
{
    version     2.0;
    format      ascii;
    class       volScalarField;
    location    "100";
    object      epsilonPlus;
}
// * * * * * * * * * * * * * * * * * * * * * * * * * * * * * * * * * * * * * //

dimensions      [0 4 -4 0 0 0 0];

internalField   nonuniform List<scalar> 
150
(
0.142763
0.142763
0.1197514
0.1197514
0.1045181
0.1045181
0.0962491
0.09624911
0.09426241
0.09426242
0.09781366
0.09781366
0.1060519
0.1060519
0.1181081
0.1181081
0.1314283
0.1314283
0.1438252
0.1438252
0.1538137
0.1538137
0.1605585
0.1605585
0.163789
0.163789
0.1636663
0.1636663
0.160633
0.160633
0.1552753
0.1552753
0.1482136
0.1482136
0.1400288
0.1400288
0.1312201
0.1312201
0.122188
0.122188
0.113235
0.113235
0.1045756
0.1045756
0.09635084
0.09635084
0.08864432
0.08864433
0.08149656
0.08149656
0.07491728
0.07491728
0.06889527
0.06889527
0.06340576
0.06340576
0.05841593
0.05841593
0.05388874
0.05388874
0.04978566
0.04978566
0.04606838
0.04606838
0.04269997
0.04269997
0.03964552
0.03964552
0.03687249
0.03687249
0.03435083
0.03435083
0.03205296
0.03205296
0.02995368
0.02995368
0.02803003
0.02803003
0.02626112
0.02626112
0.024628
0.024628
0.02311355
0.02311355
0.02170245
0.02170245
0.02038111
0.02038111
0.01913776
0.01913776
0.01796252
0.01796252
0.01684732
0.01684732
0.01578584
0.01578584
0.01477328
0.01477328
0.01380604
0.01380604
0.01288142
0.01288142
0.01199734
0.01199734
0.01115215
0.01115215
0.01034451
0.01034451
0.009573265
0.009573265
0.008837476
0.008837476
0.008136347
0.008136347
0.00746924
0.00746924
0.006835677
0.006835677
0.006235334
0.006235334
0.005668044
0.005668044
0.005133779
0.005133779
0.004632622
0.004632621
0.004164717
0.004164717
0.003730204
0.003730204
0.003329295
0.003329295
0.002962493
0.002962493
0.002630644
0.002630644
0.002334838
0.002334837
0.002076299
0.002076299
0.001856283
0.001856283
0.001676039
0.001676039
0.001536905
0.001536905
0.001440675
0.001440675
0.001390088
0.001390088
)
;

boundaryField
{
    leftandright
    {
        type            cyclic;
        value           nonuniform List<scalar> 
150
(
0.142763
0.1197514
0.1045181
0.0962491
0.09426241
0.09781366
0.1060519
0.1181081
0.1314283
0.1438252
0.1538137
0.1605585
0.163789
0.1636663
0.160633
0.1552753
0.1482136
0.1400288
0.1312201
0.122188
0.113235
0.1045756
0.09635084
0.08864432
0.08149656
0.07491728
0.06889527
0.06340576
0.05841593
0.05388874
0.04978566
0.04606838
0.04269997
0.03964552
0.03687249
0.03435083
0.03205296
0.02995368
0.02803003
0.02626112
0.024628
0.02311355
0.02170245
0.02038111
0.01913776
0.01796252
0.01684732
0.01578584
0.01477328
0.01380604
0.01288142
0.01199734
0.01115215
0.01034451
0.009573265
0.008837476
0.008136347
0.00746924
0.006835677
0.006235334
0.005668044
0.005133779
0.004632621
0.004164717
0.003730204
0.003329295
0.002962493
0.002630644
0.002334838
0.002076299
0.001856283
0.001676039
0.001536905
0.001440675
0.001390088
0.142763
0.1197514
0.1045181
0.0962491
0.09426241
0.09781366
0.1060519
0.1181081
0.1314283
0.1438252
0.1538137
0.1605585
0.163789
0.1636663
0.160633
0.1552753
0.1482136
0.1400288
0.1312201
0.122188
0.113235
0.1045756
0.09635084
0.08864432
0.08149656
0.07491728
0.06889527
0.06340576
0.05841593
0.05388874
0.04978566
0.04606838
0.04269997
0.03964552
0.03687249
0.03435083
0.03205296
0.02995368
0.02803003
0.02626112
0.024628
0.02311355
0.02170245
0.02038111
0.01913776
0.01796252
0.01684732
0.01578584
0.01477328
0.01380604
0.01288142
0.01199734
0.01115215
0.01034451
0.009573265
0.008837476
0.008136347
0.00746924
0.006835677
0.006235334
0.005668044
0.005133779
0.004632621
0.004164717
0.003730204
0.003329295
0.002962493
0.002630644
0.002334838
0.002076299
0.001856283
0.001676039
0.001536905
0.001440675
0.001390088
)
;
    }
    wall
    {
        type            calculated;
        value           nonuniform List<scalar> 2(0.1591604 0.1591604);
    }
    frontAndBack
    {
        type            empty;
    }
    middle
    {
        type            symmetryPlane;
        value           nonuniform List<scalar> 2(0.001390088 0.001390088);
    }
}


// ************************************************************************* //
