/*--------------------------------*- C++ -*----------------------------------*\
| =========                 |                                                 |
| \\      /  F ield         | foam-extend: Open Source CFD                    |
|  \\    /   O peration     | Version:     4.0                                |
|   \\  /    A nd           | Web:         http://www.foam-extend.org         |
|    \\/     M anipulation  |                                                 |
\*---------------------------------------------------------------------------*/
FoamFile
{
    version     2.0;
    format      ascii;
    class       volScalarField;
    location    "100";
    object      EtauP;
}
// * * * * * * * * * * * * * * * * * * * * * * * * * * * * * * * * * * * * * //

dimensions      [0 2 -4 0 0 0 0];

internalField   nonuniform List<scalar> 
150
(
0.006319238
0.006319229
0.1816027
0.1816024
0.8416281
0.841627
2.310927
2.310924
4.831642
4.831639
8.530263
8.530261
13.37899
13.379
19.08504
19.08505
25.26524
25.26527
31.69784
31.69788
38.19781
38.19787
44.58192
44.582
50.67297
50.67306
56.29858
56.29867
61.29554
61.29563
65.51878
65.51887
68.85304
68.85314
71.22386
71.22395
72.60421
72.60429
73.01492
73.01499
72.51881
72.51887
71.21059
71.21065
69.20493
69.20498
66.6251
66.62514
63.59392
63.59396
60.2266
60.22664
56.62604
56.62607
52.88109
52.88112
49.06635
49.0664
45.24306
45.2431
41.46037
41.46041
37.75703
37.75707
34.16301
34.16305
30.70107
30.7011
27.38821
27.38826
24.23705
24.23708
21.25695
21.25699
18.45531
18.45536
15.8387
15.83873
13.414
13.41404
11.18966
11.1897
9.176448
9.176482
7.387267
7.387299
5.835186
5.835215
4.528961
4.528983
3.467197
3.467214
2.634024
2.634035
1.999667
1.999674
1.526286
1.52629
1.175754
1.175756
0.9153532
0.9153544
0.7198729
0.7198736
0.5710904
0.5710908
0.4562143
0.4562145
0.3663196
0.3663197
0.2951332
0.2951334
0.2381863
0.2381864
0.1922451
0.1922453
0.1549328
0.1549328
0.1244756
0.1244755
0.09953101
0.09953099
0.07906889
0.07906888
0.06229136
0.06229136
0.04856702
0.04856702
0.03736813
0.03736814
0.02827886
0.02827888
0.0209669
0.0209669
0.0151372
0.01513721
0.0105821
0.01058211
0.007028873
0.007028874
0.004519833
0.004519826
0.002305111
0.002305101
0.001896492
0.001896491
-0.0005387962
-0.0005387948
0.0005864827
0.0005864816
)
;

boundaryField
{
    leftandright
    {
        type            cyclic;
        value           nonuniform List<scalar> 
150
(
0.006319233
0.1816025
0.8416276
2.310926
4.831641
8.530262
13.37899
19.08505
25.26525
31.69786
38.19784
44.58196
50.67302
56.29863
61.29559
65.51882
68.85309
71.2239
72.60425
73.01495
72.51884
71.21062
69.20495
66.62512
63.59394
60.22662
56.62606
52.88111
49.06638
45.24308
41.46039
37.75705
34.16303
30.70108
27.38823
24.23706
21.25697
18.45534
15.83871
13.41402
11.18968
9.176465
7.387283
5.835201
4.528972
3.467205
2.63403
1.99967
1.526288
1.175755
0.9153538
0.7198732
0.5710906
0.4562144
0.3663197
0.2951333
0.2381863
0.1922452
0.1549328
0.1244756
0.099531
0.07906889
0.06229136
0.04856702
0.03736814
0.02827887
0.0209669
0.0151372
0.01058211
0.007028874
0.004519829
0.002305106
0.001896492
-0.0005387955
0.0005864822
0.006319233
0.1816025
0.8416276
2.310926
4.831641
8.530262
13.37899
19.08505
25.26525
31.69786
38.19784
44.58196
50.67302
56.29863
61.29559
65.51882
68.85309
71.2239
72.60425
73.01495
72.51884
71.21062
69.20495
66.62512
63.59394
60.22662
56.62606
52.88111
49.06638
45.24308
41.46039
37.75705
34.16303
30.70108
27.38823
24.23706
21.25697
18.45534
15.83871
13.41402
11.18968
9.176465
7.387283
5.835201
4.528972
3.467205
2.63403
1.99967
1.526288
1.175755
0.9153538
0.7198732
0.5710906
0.4562144
0.3663197
0.2951333
0.2381863
0.1922452
0.1549328
0.1244756
0.099531
0.07906889
0.06229136
0.04856702
0.03736814
0.02827887
0.0209669
0.0151372
0.01058211
0.007028874
0.004519829
0.002305106
0.001896492
-0.0005387955
0.0005864822
)
;
    }
    wall
    {
        type            calculated;
        value           nonuniform List<scalar> 2(8.83361e-08 8.833595e-08);
    }
    frontAndBack
    {
        type            empty;
    }
    middle
    {
        type            symmetryPlane;
        value           nonuniform List<scalar> 2(0.0005864827 0.0005864816);
    }
}


// ************************************************************************* //
