/*--------------------------------*- C++ -*----------------------------------*\
| =========                 |                                                 |
| \\      /  F ield         | foam-extend: Open Source CFD                    |
|  \\    /   O peration     | Version:     4.0                                |
|   \\  /    A nd           | Web:         http://www.foam-extend.org         |
|    \\/     M anipulation  |                                                 |
\*---------------------------------------------------------------------------*/
FoamFile
{
    version     2.0;
    format      ascii;
    class       volScalarField;
    location    "100";
    object      eVyy;
}
// * * * * * * * * * * * * * * * * * * * * * * * * * * * * * * * * * * * * * //

dimensions      [0 2 -3 0 0 0 0];

internalField   nonuniform List<scalar> 
150
(
6.009605e-09
6.009596e-09
1.379703e-06
1.379701e-06
1.824633e-05
1.824631e-05
9.533646e-05
9.533636e-05
0.0003044221
0.0003044219
0.0007151113
0.0007151112
0.001364422
0.001364422
0.002623878
0.00262388
0.004499971
0.004499977
0.007035028
0.007035039
0.01035243
0.01035245
0.01460228
0.01460231
0.01995128
0.01995132
0.0265675
0.02656755
0.03460219
0.03460224
0.04417001
0.04417008
0.05533062
0.0553307
0.06807467
0.06807476
0.08231676
0.08231686
0.09789593
0.09789604
0.1145828
0.114583
0.1320916
0.1320917
0.1500941
0.1500942
0.1682349
0.1682351
0.1861467
0.1861468
0.2034594
0.2034595
0.2198054
0.2198055
0.2348253
0.2348255
0.2481732
0.2481734
0.2595229
0.2595232
0.2685736
0.2685739
0.2750561
0.2750565
0.2787395
0.2787399
0.2794373
0.2794376
0.2770144
0.2770148
0.2713947
0.2713952
0.2625695
0.26257
0.2506082
0.2506088
0.2356743
0.2356749
0.2180455
0.2180462
0.1981424
0.198143
0.176559
0.1765597
0.1540829
0.1540836
0.1316754
0.131676
0.1103768
0.1103773
0.09113004
0.09113048
0.07457595
0.07457626
0.06093016
0.06093037
0.05001518
0.05001531
0.04141478
0.04141486
0.03464656
0.03464661
0.02927477
0.0292748
0.02495256
0.02495258
0.02142061
0.02142062
0.01848978
0.01848979
0.01602261
0.01602262
0.01391847
0.01391848
0.01210284
0.01210284
0.0105198
0.0105198
0.009126907
0.009126905
0.007891605
0.007891604
0.006788706
0.006788705
0.005798978
0.005798978
0.004907416
0.004907416
0.004100142
0.004100143
0.003370209
0.003370211
0.00271539
0.002715391
0.0021311
0.002131102
0.001619187
0.001619188
0.001167232
0.001167232
0.0008117815
0.0008117804
0.0004448916
0.0004448896
0.0003892502
0.00038925
-0.0001158192
-0.0001158189
0.0001293505
0.0001293503
)
;

boundaryField
{
    leftandright
    {
        type            cyclic;
        value           nonuniform List<scalar> 
150
(
6.0096e-09
1.379702e-06
1.824632e-05
9.533641e-05
0.000304422
0.0007151113
0.001364422
0.002623879
0.004499974
0.007035033
0.01035244
0.01460229
0.0199513
0.02656752
0.03460221
0.04417005
0.05533066
0.06807471
0.08231681
0.09789598
0.1145829
0.1320917
0.1500941
0.168235
0.1861468
0.2034594
0.2198055
0.2348254
0.2481733
0.259523
0.2685737
0.2750563
0.2787397
0.2794375
0.2770146
0.271395
0.2625697
0.2506085
0.2356746
0.2180459
0.1981427
0.1765593
0.1540832
0.1316757
0.1103771
0.09113026
0.07457611
0.06093026
0.05001524
0.04141482
0.03464658
0.02927478
0.02495257
0.02142061
0.01848978
0.01602262
0.01391848
0.01210284
0.0105198
0.009126906
0.007891605
0.006788706
0.005798978
0.004907416
0.004100142
0.00337021
0.002715391
0.002131101
0.001619188
0.001167232
0.000811781
0.0004448906
0.0003892501
-0.0001158191
0.0001293504
6.0096e-09
1.379702e-06
1.824632e-05
9.533641e-05
0.000304422
0.0007151113
0.001364422
0.002623879
0.004499974
0.007035033
0.01035244
0.01460229
0.0199513
0.02656752
0.03460221
0.04417005
0.05533066
0.06807471
0.08231681
0.09789598
0.1145829
0.1320917
0.1500941
0.168235
0.1861468
0.2034594
0.2198055
0.2348254
0.2481733
0.259523
0.2685737
0.2750563
0.2787397
0.2794375
0.2770146
0.271395
0.2625697
0.2506085
0.2356746
0.2180459
0.1981427
0.1765593
0.1540832
0.1316757
0.1103771
0.09113026
0.07457611
0.06093026
0.05001524
0.04141482
0.03464658
0.02927478
0.02495257
0.02142061
0.01848978
0.01602262
0.01391848
0.01210284
0.0105198
0.009126906
0.007891605
0.006788706
0.005798978
0.004907416
0.004100142
0.00337021
0.002715391
0.002131101
0.001619188
0.001167232
0.000811781
0.0004448906
0.0003892501
-0.0001158191
0.0001293504
)
;
    }
    wall
    {
        type            calculated;
        value           nonuniform List<scalar> 2(1.000435e-09 1.000433e-09);
    }
    frontAndBack
    {
        type            empty;
    }
    middle
    {
        type            symmetryPlane;
        value           nonuniform List<scalar> 2(0.0001293505 0.0001293503);
    }
}


// ************************************************************************* //
