/*--------------------------------*- C++ -*----------------------------------*\
| =========                 |                                                 |
| \\      /  F ield         | foam-extend: Open Source CFD                    |
|  \\    /   O peration     | Version:     4.0                                |
|   \\  /    A nd           | Web:         http://www.foam-extend.org         |
|    \\/     M anipulation  |                                                 |
\*---------------------------------------------------------------------------*/
FoamFile
{
    version     2.0;
    format      ascii;
    class       volScalarField;
    location    "100";
    object      f;
}
// * * * * * * * * * * * * * * * * * * * * * * * * * * * * * * * * * * * * * //

dimensions      [0 0 -1 0 0 0 0];

internalField   nonuniform List<scalar> 
150
(
0.1012107
0.1012107
0.3008332
0.3008332
0.5032369
0.5032369
0.7086944
0.7086944
0.9170397
0.9170397
1.127576
1.127576
1.338958
1.338958
1.549071
1.549071
1.757077
1.757077
1.961977
1.961977
2.162539
2.162539
2.357483
2.357483
2.545587
2.545587
2.725756
2.725756
2.897053
2.897053
3.058713
3.058713
3.210136
3.210136
3.350871
3.350871
3.480597
3.480597
3.599102
3.599102
3.706256
3.706256
3.801994
3.801994
3.8863
3.8863
3.959187
3.959187
4.021209
4.021209
4.073331
4.073331
4.116405
4.116405
4.151188
4.151188
4.178352
4.178352
4.198499
4.198499
4.212163
4.212163
4.219823
4.219823
4.221907
4.221907
4.218798
4.218798
4.210841
4.210841
4.198343
4.198343
4.181581
4.181581
4.160802
4.160802
4.136229
4.136229
4.108061
4.108061
4.076477
4.076477
4.04164
4.04164
4.003697
4.003697
3.962781
3.962781
3.919019
3.919019
3.872529
3.872529
3.823426
3.823426
3.771822
3.771822
3.717831
3.717831
3.661565
3.661565
3.603139
3.603139
3.54267
3.54267
3.480276
3.480276
3.416078
3.416078
3.350203
3.350203
3.282781
3.282781
3.213949
3.213949
3.143852
3.143852
3.072647
3.072647
3.000509
3.000509
2.927633
2.927633
2.854246
2.854246
2.78062
2.78062
2.707088
2.707088
2.634073
2.634073
2.562122
2.562122
2.49193
2.49193
2.424345
2.424345
2.36036
2.36036
2.301112
2.301112
2.247866
2.247866
2.202
2.202
2.165005
2.165005
2.138493
2.138493
2.124237
2.124237
)
;

boundaryField
{
    leftandright
    {
        type            cyclic;
        value           nonuniform List<scalar> 
150
(
0.1012107
0.3008332
0.5032369
0.7086944
0.9170397
1.127576
1.338958
1.549071
1.757077
1.961977
2.162539
2.357483
2.545587
2.725756
2.897053
3.058713
3.210136
3.350871
3.480597
3.599102
3.706256
3.801994
3.8863
3.959187
4.021209
4.073331
4.116405
4.151188
4.178352
4.198499
4.212163
4.219823
4.221907
4.218798
4.210841
4.198343
4.181581
4.160802
4.136229
4.108061
4.076477
4.04164
4.003697
3.962781
3.919019
3.872529
3.823426
3.771822
3.717831
3.661565
3.603139
3.54267
3.480276
3.416078
3.350203
3.282781
3.213949
3.143852
3.072647
3.000509
2.927633
2.854246
2.78062
2.707088
2.634073
2.562122
2.49193
2.424345
2.36036
2.301112
2.247866
2.202
2.165005
2.138493
2.124237
0.1012107
0.3008332
0.5032369
0.7086944
0.9170397
1.127576
1.338958
1.549071
1.757077
1.961977
2.162539
2.357483
2.545587
2.725756
2.897053
3.058713
3.210136
3.350871
3.480597
3.599102
3.706256
3.801994
3.8863
3.959187
4.021209
4.073331
4.116405
4.151188
4.178352
4.198499
4.212163
4.219823
4.221907
4.218798
4.210841
4.198343
4.181581
4.160802
4.136229
4.108061
4.076477
4.04164
4.003697
3.962781
3.919019
3.872529
3.823426
3.771822
3.717831
3.661565
3.603139
3.54267
3.480276
3.416078
3.350203
3.282781
3.213949
3.143852
3.072647
3.000509
2.927633
2.854246
2.78062
2.707088
2.634073
2.562122
2.49193
2.424345
2.36036
2.301112
2.247866
2.202
2.165005
2.138493
2.124237
)
;
    }
    wall
    {
        type            fixedValue;
        value           uniform 1e-10;
    }
    frontAndBack
    {
        type            empty;
    }
    middle
    {
        type            symmetryPlane;
        value           nonuniform List<scalar> 2(2.124237 2.124237);
    }
}


// ************************************************************************* //
