/*--------------------------------*- C++ -*----------------------------------*\
| =========                 |                                                 |
| \\      /  F ield         | foam-extend: Open Source CFD                    |
|  \\    /   O peration     | Version:     4.0                                |
|   \\  /    A nd           | Web:         http://www.foam-extend.org         |
|    \\/     M anipulation  |                                                 |
\*---------------------------------------------------------------------------*/
FoamFile
{
    version     2.0;
    format      ascii;
    class       volScalarField;
    location    "100";
    object      fp;
}
// * * * * * * * * * * * * * * * * * * * * * * * * * * * * * * * * * * * * * //

dimensions      [0 0 0 0 0 0 0];

internalField   nonuniform List<scalar> 
150
(
1.592807
1.592807
1.591862
1.591862
1.589834
1.589834
1.586384
1.586384
1.581251
1.581251
1.574312
1.574312
1.564949
1.56495
1.55247
1.55247
1.537389
1.53739
1.521269
1.521269
1.505238
1.505238
1.489782
1.489783
1.47496
1.47496
1.460593
1.460593
1.446404
1.446404
1.432104
1.432105
1.417458
1.417458
1.402312
1.402312
1.386609
1.386609
1.370376
1.370377
1.353711
1.353711
1.336751
1.336751
1.319647
1.319647
1.302552
1.302552
1.285597
1.285597
1.268893
1.268893
1.252522
1.252522
1.23654
1.23654
1.220982
1.220983
1.205864
1.205864
1.191186
1.191186
1.176938
1.176938
1.163106
1.163106
1.149669
1.149669
1.136609
1.136609
1.123912
1.123912
1.111569
1.111569
1.099581
1.099582
1.087968
1.087968
1.076767
1.076767
1.066043
1.066044
1.055899
1.0559
1.046471
1.046471
1.037921
1.037921
1.03041
1.03041
1.024052
1.024053
1.018874
1.018874
1.014797
1.014797
1.011663
1.011663
1.009279
1.009279
1.007465
1.007465
1.006071
1.006071
1.004984
1.004984
1.004125
1.004125
1.003435
1.003435
1.002873
1.002873
1.00241
1.00241
1.002024
1.002024
1.001701
1.001701
1.001426
1.001426
1.001192
1.001192
1.000992
1.000992
1.00082
1.00082
1.000673
1.000673
1.000545
1.000545
1.000436
1.000436
1.000342
1.000342
1.000262
1.000262
1.000195
1.000195
1.000137
1.000137
1.000094
1.000094
1.000051
1.000051
1.000043
1.000043
1
1
1.000014
1.000014
)
;

boundaryField
{
    leftandright
    {
        type            cyclic;
        value           nonuniform List<scalar> 
150
(
1.592807
1.591862
1.589834
1.586384
1.581251
1.574312
1.564949
1.55247
1.53739
1.521269
1.505238
1.489782
1.47496
1.460593
1.446404
1.432105
1.417458
1.402312
1.386609
1.370376
1.353711
1.336751
1.319647
1.302552
1.285597
1.268893
1.252522
1.23654
1.220983
1.205864
1.191186
1.176938
1.163106
1.149669
1.136609
1.123912
1.111569
1.099582
1.087968
1.076767
1.066044
1.0559
1.046471
1.037921
1.03041
1.024052
1.018874
1.014797
1.011663
1.009279
1.007465
1.006071
1.004984
1.004125
1.003435
1.002873
1.00241
1.002024
1.001701
1.001426
1.001192
1.000992
1.00082
1.000673
1.000545
1.000436
1.000342
1.000262
1.000195
1.000137
1.000094
1.000051
1.000043
1
1.000014
1.592807
1.591862
1.589834
1.586384
1.581251
1.574312
1.564949
1.55247
1.53739
1.521269
1.505238
1.489782
1.47496
1.460593
1.446404
1.432105
1.417458
1.402312
1.386609
1.370376
1.353711
1.336751
1.319647
1.302552
1.285597
1.268893
1.252522
1.23654
1.220983
1.205864
1.191186
1.176938
1.163106
1.149669
1.136609
1.123912
1.111569
1.099582
1.087968
1.076767
1.066044
1.0559
1.046471
1.037921
1.03041
1.024052
1.018874
1.014797
1.011663
1.009279
1.007465
1.006071
1.004984
1.004125
1.003435
1.002873
1.00241
1.002024
1.001701
1.001426
1.001192
1.000992
1.00082
1.000673
1.000545
1.000436
1.000342
1.000262
1.000195
1.000137
1.000094
1.000051
1.000043
1
1.000014
)
;
    }
    wall
    {
        type            calculated;
        value           nonuniform List<scalar> 2(1.592807 1.592807);
    }
    frontAndBack
    {
        type            empty;
    }
    middle
    {
        type            symmetryPlane;
        value           nonuniform List<scalar> 2(1.000014 1.000014);
    }
}


// ************************************************************************* //
