/*--------------------------------*- C++ -*----------------------------------*\
| =========                 |                                                 |
| \\      /  F ield         | foam-extend: Open Source CFD                    |
|  \\    /   O peration     | Version:     4.0                                |
|   \\  /    A nd           | Web:         http://www.foam-extend.org         |
|    \\/     M anipulation  |                                                 |
\*---------------------------------------------------------------------------*/
FoamFile
{
    version     2.0;
    format      ascii;
    class       volScalarField;
    location    "100";
    object      k;
}
// * * * * * * * * * * * * * * * * * * * * * * * * * * * * * * * * * * * * * //

dimensions      [0 2 -2 0 0 0 0];

internalField   nonuniform List<scalar> 
150
(
0.01193329
0.01193329
0.1241844
0.1241844
0.3227095
0.3227095
0.6051164
0.6051165
0.966764
0.9667641
1.399137
1.399137
1.890528
1.890529
2.424127
2.424127
2.96781
2.96781
3.491085
3.491085
3.969827
3.969828
4.387264
4.387264
4.734165
4.734165
5.007934
5.007935
5.211125
5.211125
5.349809
5.34981
5.432084
5.432084
5.466864
5.466864
5.463003
5.463003
5.428725
5.428725
5.371302
5.371302
5.296932
5.296932
5.210731
5.210731
5.116814
5.116814
5.018417
5.018418
4.918025
4.918025
4.817504
4.817504
4.718216
4.718216
4.621124
4.621124
4.526868
4.526869
4.435842
4.435842
4.348238
4.348238
4.264097
4.264097
4.183337
4.183337
4.10578
4.10578
4.03117
4.03117
3.959186
3.959186
3.889457
3.889457
3.821564
3.821564
3.755051
3.755051
3.689431
3.689431
3.624195
3.624195
3.558826
3.558826
3.492815
3.492815
3.425688
3.425688
3.357026
3.357026
3.286491
3.286491
3.213837
3.213837
3.138912
3.138912
3.061645
3.061646
2.982032
2.982032
2.900116
2.900116
2.815975
2.815975
2.729719
2.729719
2.641479
2.641479
2.551415
2.551415
2.459714
2.459714
2.3666
2.3666
2.27234
2.27234
2.177249
2.177249
2.081702
2.081702
1.986136
1.986136
1.891055
1.891055
1.797027
1.797027
1.704676
1.704676
1.614701
1.614701
1.527938
1.527938
1.445384
1.445384
1.368192
1.368192
1.297641
1.297641
1.235098
1.235098
1.181973
1.181973
1.139695
1.139695
1.109759
1.109759
1.093774
1.093774
)
;

boundaryField
{
    leftandright
    {
        type            cyclic;
        value           nonuniform List<scalar> 
150
(
0.01193329
0.1241844
0.3227095
0.6051164
0.966764
1.399137
1.890528
2.424127
2.96781
3.491085
3.969828
4.387264
4.734165
5.007934
5.211125
5.34981
5.432084
5.466864
5.463003
5.428725
5.371302
5.296932
5.210731
5.116814
5.018417
4.918025
4.817504
4.718216
4.621124
4.526869
4.435842
4.348238
4.264097
4.183337
4.10578
4.03117
3.959186
3.889457
3.821564
3.755051
3.689431
3.624195
3.558826
3.492815
3.425688
3.357026
3.286491
3.213837
3.138912
3.061645
2.982032
2.900116
2.815975
2.729719
2.641479
2.551415
2.459714
2.3666
2.27234
2.177249
2.081702
1.986136
1.891055
1.797027
1.704676
1.614701
1.527938
1.445384
1.368192
1.297641
1.235098
1.181973
1.139695
1.109759
1.093774
0.01193329
0.1241844
0.3227095
0.6051164
0.966764
1.399137
1.890528
2.424127
2.96781
3.491085
3.969828
4.387264
4.734165
5.007934
5.211125
5.34981
5.432084
5.466864
5.463003
5.428725
5.371302
5.296932
5.210731
5.116814
5.018417
4.918025
4.817504
4.718216
4.621124
4.526869
4.435842
4.348238
4.264097
4.183337
4.10578
4.03117
3.959186
3.889457
3.821564
3.755051
3.689431
3.624195
3.558826
3.492815
3.425688
3.357026
3.286491
3.213837
3.138912
3.061645
2.982032
2.900116
2.815975
2.729719
2.641479
2.551415
2.459714
2.3666
2.27234
2.177249
2.081702
1.986136
1.891055
1.797027
1.704676
1.614701
1.527938
1.445384
1.368192
1.297641
1.235098
1.181973
1.139695
1.109759
1.093774
)
;
    }
    wall
    {
        type            fixedValue;
        value           uniform 1e-10;
    }
    frontAndBack
    {
        type            empty;
    }
    middle
    {
        type            symmetryPlane;
        value           nonuniform List<scalar> 2(1.093774 1.093774);
    }
}


// ************************************************************************* //
