/*--------------------------------*- C++ -*----------------------------------*\
| =========                 |                                                 |
| \\      /  F ield         | foam-extend: Open Source CFD                    |
|  \\    /   O peration     | Version:     4.0                                |
|   \\  /    A nd           | Web:         http://www.foam-extend.org         |
|    \\/     M anipulation  |                                                 |
\*---------------------------------------------------------------------------*/
FoamFile
{
    version     2.0;
    format      ascii;
    class       volSymmTensorField;
    location    "100";
    object      N;
}
// * * * * * * * * * * * * * * * * * * * * * * * * * * * * * * * * * * * * * //

dimensions      [0 2 -2 0 0 0 0];

internalField   nonuniform List<symmTensor> 
150
(
(0.02340659 0 0 3.348016e-06 0 0.0004566432)
(0.02340659 0 0 3.348017e-06 0 0.0004566434)
(0.2429238 0 0 0.0001567373 0 0.005288328)
(0.2429238 0 0 0.0001567374 0 0.005288329)
(0.6244241 0 0 0.0008896227 0 0.0201053)
(0.6244241 0 0 0.0008896229 0 0.02010531)
(1.159618 0 0 0.002737706 0 0.04787718)
(1.159618 0 0 0.002737706 0 0.04787719)
(1.837031 0 0 0.00618857 0 0.09030829)
(1.837031 0 0 0.006188571 0 0.09030831)
(2.63883 0 0 0.01160781 0 0.1478354)
(2.63883 0 0 0.01160781 0 0.1478354)
(3.541882 5.061402e-18 0 0.01923105 0 0.2199436)
(3.541882 -5.061403e-18 0 0.01923105 0 0.2199436)
(4.514267 0 0 0.02910841 0 0.3048778)
(4.514268 0 0 0.02910841 0 0.3048779)
(5.495422 0 0 0.04111923 0 0.3990787)
(5.495422 -1.634035e-17 0 0.04111923 0 0.3990788)
(6.428316 0 0 0.0550941 0 0.4987598)
(6.428316 0 0 0.05509411 0 0.4987599)
(7.268529 0 0 0.07082191 0 0.6003041)
(7.268529 0 0 0.07082192 0 0.6003041)
(7.986003 -4.814532e-17 0 0.08805564 0 0.7004695)
(7.986004 4.814532e-17 0 0.08805566 0 0.7004696)
(8.565197 0 0 0.1065325 0 0.7966009)
(8.565197 0 0 0.1065325 0 0.7966009)
(9.003152 5.413046e-17 0 0.1259924 0 0.8867244)
(9.003152 -5.413047e-17 0 0.1259925 0 0.8867244)
(9.306513 0 0 0.146192 0 0.9695448)
(9.306514 0 0 0.1461921 0 0.9695449)
(9.488332 -5.651169e-17 0 0.1669136 0 1.044373)
(9.488332 0 0 0.1669137 0 1.044373)
(9.565183 0 0 0.1879691 0 1.111017)
(9.565183 0 0 0.1879692 0 1.111017)
(9.554871 1.119748e-16 0 0.2092004 0 1.169657)
(9.554871 0 0 0.2092004 0 1.169657)
(9.474795 0 0 0.2304769 0 1.220735)
(9.474795 0 0 0.2304769 0 1.220735)
(9.340908 -2.138206e-16 0 0.2516928 0 1.264848)
(9.340908 1.069103e-16 0 0.2516928 0 1.264848)
(9.167163 0 0 0.2727631 0 1.302679)
(9.167163 0 0 0.2727632 0 1.302679)
(8.965315 1.989085e-16 0 0.2936209 0 1.334928)
(8.965315 0 0 0.2936209 0 1.334928)
(8.744962 1.904652e-16 0 0.3142142 0 1.362285)
(8.744962 0 0 0.3142142 0 1.362285)
(8.513728 0 0 0.3345051 0 1.385395)
(8.513728 0 0 0.3345052 0 1.385396)
(8.277509 -1.727728e-16 0 0.3544693 0 1.404856)
(8.277509 0 0 0.3544693 0 1.404856)
(8.040757 -1.638584e-16 0 0.3740917 0 1.421201)
(8.040757 0 0 0.3740917 0 1.421201)
(7.80675 -3.101206e-16 0 0.3933616 0 1.434896)
(7.80675 0 0 0.3933616 0 1.434896)
(7.577828 0 0 0.4122688 0 1.446335)
(7.577828 0 0 0.4122688 0 1.446335)
(7.355594 0 0 0.4308017 0 1.455851)
(7.355594 0 0 0.4308018 0 1.455851)
(7.141074 0 0 0.4489463 0 1.463716)
(7.141075 0 0 0.4489464 0 1.463716)
(6.934849 2.447716e-16 0 0.4666853 0 1.470149)
(6.93485 -2.447716e-16 0 0.4666853 0 1.470149)
(6.737156 2.300521e-16 0 0.4839975 0 1.475323)
(6.737156 0 0 0.4839975 0 1.475323)
(6.547968 -6.481073e-16 0 0.5008584 0 1.479368)
(6.547968 0 0 0.5008584 0 1.479369)
(6.367056 0 0 0.5172393 0 1.48238)
(6.367056 0 0 0.5172393 0 1.48238)
(6.194035 3.80201e-16 0 0.5331079 0 1.484417)
(6.194035 0 0 0.5331079 0 1.484417)
(6.028399 0 0 0.5484278 0 1.485512)
(6.028399 0 0 0.5484279 0 1.485512)
(5.869545 6.674107e-16 0 0.5631589 0 1.485668)
(5.869546 -3.337054e-16 0 0.5631589 0 1.485668)
(5.716795 0 0 0.5772571 0 1.484862)
(5.716795 0 0 0.5772571 0 1.484862)
(5.569405 0 0 0.5906744 0 1.483049)
(5.569405 0 0 0.5906744 0 1.483049)
(5.426583 0 0 0.603359 0 1.48016)
(5.426583 0 0 0.6033591 0 1.48016)
(5.287498 0 0 0.6152556 0 1.476109)
(5.287498 0 0 0.6152556 0 1.476109)
(5.151295 0 0 0.6263054 0 1.470789)
(5.151295 0 0 0.6263054 0 1.470789)
(5.01712 0 0 0.6364472 0 1.464084)
(5.01712 0 0 0.6364472 0 1.464084)
(4.884143 -8.27038e-16 0 0.6456185 0 1.455869)
(4.884143 0 0 0.6456185 0 1.455869)
(4.751599 -3.846769e-16 0 0.6537572 0 1.44602)
(4.751599 0 0 0.6537572 0 1.44602)
(4.618822 0 0 0.6608041 0 1.434425)
(4.618822 0 0 0.6608041 0 1.434425)
(4.485285 0 0 0.6667052 0 1.420991)
(4.485285 0 0 0.6667052 0 1.420991)
(4.350608 0 0 0.6714141 0 1.405651)
(4.350608 0 0 0.671414 0 1.405651)
(4.214564 5.675929e-16 0 0.674893 0 1.388367)
(4.214564 0 0 0.674893 0 1.388367)
(4.077052 5.237488e-16 0 0.6771137 0 1.369126)
(4.077052 -5.237489e-16 0 0.6771137 0 1.369126)
(3.938069 0 0 0.6780568 0 1.347939)
(3.938069 0 0 0.6780568 0 1.347939)
(3.797685 0 0 0.6777114 0 1.324835)
(3.797685 0 0 0.6777114 0 1.324835)
(3.656018 0 0 0.6760744 0 1.299859)
(3.656018 0 0 0.6760744 0 1.299859)
(3.513223 0 0 0.6731503 0 1.273065)
(3.513223 0 0 0.6731503 0 1.273065)
(3.369487 0 0 0.6689505 0 1.244521)
(3.369487 0 0 0.6689505 0 1.244521)
(3.225031 -6.182253e-16 0 0.6634929 0 1.214306)
(3.225031 6.182253e-16 0 0.6634929 0 1.214306)
(3.080119 0 0 0.6568012 0 1.182508)
(3.080119 0 0 0.6568012 0 1.182508)
(2.935066 0 0 0.6489031 0 1.149231)
(2.935066 0 0 0.6489031 0 1.149231)
(2.790259 -4.588513e-16 0 0.6398284 0 1.114592)
(2.790259 4.588513e-16 0 0.6398284 0 1.114592)
(2.646172 0 0 0.6296044 0 1.078722)
(2.646172 0 0 0.6296044 0 1.078722)
(2.503387 0 0 0.61825 0 1.041767)
(2.503387 0 0 0.6182499 0 1.041767)
(2.362621 0 0 0.6057657 0 1.003885)
(2.362621 0 0 0.6057657 0 1.003885)
(2.224751 -1.181694e-15 0 0.5921196 0 0.9652396)
(2.224751 0 0 0.5921196 0 0.9652396)
(2.090837 0 0 0.5772258 0 0.9259919)
(2.090837 -5.254258e-16 0 0.5772258 0 0.9259919)
(1.962156 0 0 0.5609139 0 0.8862822)
(1.962156 0 0 0.5609138 0 0.8862822)
(1.839604 0 0 0.5433276 0 0.8464708)
(1.839604 0 0 0.5433276 0 0.8464708)
(1.723718 0 0 0.524983 0 0.807174)
(1.723718 -7.321533e-16 0 0.5249829 0 0.807174)
(1.615285 0 0 0.5064179 0 0.7690651)
(1.615285 0 0 0.5064179 0 0.769065)
(1.515316 0 0 0.4881933 0 0.7328742)
(1.515316 0 0 0.4881933 0 0.7328742)
(1.425017 0 0 0.4708865 0 0.6993791)
(1.425017 0 0 0.4708865 0 0.6993791)
(1.345732 0 0 0.4550785 0 0.6693852)
(1.345732 0 0 0.4550785 0 0.6693852)
(1.2789 0 0 0.4413398 0 0.6437058)
(1.2789 0 0 0.4413398 0 0.6437058)
(1.226025 0 0 0.4302188 0 0.6231466)
(1.226025 0 0 0.4302188 0 0.6231466)
(1.188742 0 0 0.4222499 0 0.6085263)
(1.188742 0 0 0.4222499 0 0.6085263)
(1.168884 -6.363768e-16 0 0.4179641 0 0.6006989)
(1.168884 0 0 0.4179641 0 0.6006989)
)
;

boundaryField
{
    leftandright
    {
        type            cyclic;
        value           nonuniform List<symmTensor> 
150
(
(0.02340659 0 0 3.348017e-06 0 0.0004566433)
(0.2429238 0 0 0.0001567373 0 0.005288329)
(0.6244241 0 0 0.0008896228 0 0.02010531)
(1.159618 0 0 0.002737706 0 0.04787718)
(1.837031 0 0 0.006188571 0 0.0903083)
(2.63883 0 0 0.01160781 0 0.1478354)
(3.541882 -2.78322e-33 0 0.01923105 0 0.2199436)
(4.514268 0 0 0.02910841 0 0.3048779)
(5.495422 -8.170175e-18 0 0.04111923 0 0.3990788)
(6.428316 0 0 0.05509411 0 0.4987599)
(7.268529 0 0 0.07082191 0 0.6003041)
(7.986003 -3.774292e-33 0 0.08805565 0 0.7004696)
(8.565197 0 0 0.1065325 0 0.7966009)
(9.003152 1.406512e-32 0 0.1259925 0 0.8867244)
(9.306514 0 0 0.1461921 0 0.9695448)
(9.488332 -2.825585e-17 0 0.1669137 0 1.044373)
(9.565183 0 0 0.1879692 0 1.111017)
(9.554871 5.598739e-17 0 0.2092004 0 1.169657)
(9.474795 0 0 0.2304769 0 1.220735)
(9.340908 -5.345515e-17 0 0.2516928 0 1.264848)
(9.167163 0 0 0.2727632 0 1.302679)
(8.965315 9.945427e-17 0 0.2936209 0 1.334928)
(8.744962 9.523258e-17 0 0.3142142 0 1.362285)
(8.513728 0 0 0.3345052 0 1.385396)
(8.277509 -8.638641e-17 0 0.3544693 0 1.404856)
(8.040757 -8.192921e-17 0 0.3740917 0 1.421201)
(7.80675 -1.550603e-16 0 0.3933616 0 1.434896)
(7.577828 0 0 0.4122688 0 1.446335)
(7.355594 0 0 0.4308017 0 1.455851)
(7.141075 0 0 0.4489464 0 1.463716)
(6.93485 0 0 0.4666853 0 1.470149)
(6.737156 1.15026e-16 0 0.4839975 0 1.475323)
(6.547968 -3.240537e-16 0 0.5008584 0 1.479368)
(6.367056 0 0 0.5172393 0 1.48238)
(6.194035 1.901005e-16 0 0.5331079 0 1.484417)
(6.028399 0 0 0.5484278 0 1.485512)
(5.869546 1.668527e-16 0 0.5631589 0 1.485668)
(5.716795 0 0 0.5772571 0 1.484862)
(5.569405 0 0 0.5906744 0 1.483049)
(5.426583 0 0 0.6033591 0 1.48016)
(5.287498 0 0 0.6152556 0 1.476109)
(5.151295 0 0 0.6263054 0 1.470789)
(5.01712 0 0 0.6364472 0 1.464084)
(4.884143 -4.13519e-16 0 0.6456185 0 1.455869)
(4.751599 -1.923384e-16 0 0.6537572 0 1.44602)
(4.618822 0 0 0.6608041 0 1.434425)
(4.485285 0 0 0.6667052 0 1.420991)
(4.350608 0 0 0.671414 0 1.405651)
(4.214564 2.837965e-16 0 0.674893 0 1.388367)
(4.077052 5.800199e-31 0 0.6771137 0 1.369126)
(3.938069 0 0 0.6780568 0 1.347939)
(3.797685 0 0 0.6777114 0 1.324835)
(3.656018 0 0 0.6760744 0 1.299859)
(3.513223 0 0 0.6731503 0 1.273065)
(3.369487 0 0 0.6689505 0 1.244521)
(3.225031 -5.431433e-32 0 0.6634929 0 1.214306)
(3.080119 0 0 0.6568012 0 1.182508)
(2.935066 0 0 0.6489031 0 1.149231)
(2.790259 -9.363063e-32 0 0.6398284 0 1.114592)
(2.646172 0 0 0.6296044 0 1.078722)
(2.503387 0 0 0.61825 0 1.041767)
(2.362621 0 0 0.6057657 0 1.003885)
(2.224751 -5.908471e-16 0 0.5921196 0 0.9652396)
(2.090837 -2.627129e-16 0 0.5772258 0 0.9259919)
(1.962156 0 0 0.5609139 0 0.8862822)
(1.839604 0 0 0.5433276 0 0.8464708)
(1.723718 -3.660766e-16 0 0.524983 0 0.807174)
(1.615285 0 0 0.5064179 0 0.7690651)
(1.515316 0 0 0.4881933 0 0.7328742)
(1.425017 0 0 0.4708865 0 0.6993791)
(1.345732 0 0 0.4550785 0 0.6693852)
(1.2789 0 0 0.4413398 0 0.6437058)
(1.226025 0 0 0.4302188 0 0.6231466)
(1.188742 0 0 0.4222499 0 0.6085263)
(1.168884 -3.181884e-16 0 0.4179641 0 0.6006989)
(0.02340659 0 0 3.348017e-06 0 0.0004566433)
(0.2429238 0 0 0.0001567373 0 0.005288329)
(0.6244241 0 0 0.0008896228 0 0.02010531)
(1.159618 0 0 0.002737706 0 0.04787718)
(1.837031 0 0 0.006188571 0 0.0903083)
(2.63883 0 0 0.01160781 0 0.1478354)
(3.541882 -3.092467e-33 0 0.01923105 0 0.2199436)
(4.514268 0 0 0.02910841 0 0.3048779)
(5.495422 -8.170175e-18 0 0.04111923 0 0.3990788)
(6.428316 0 0 0.05509411 0 0.4987599)
(7.268529 0 0 0.07082191 0 0.6003041)
(7.986003 -3.774292e-33 0 0.08805565 0 0.7004696)
(8.565197 0 0 0.1065325 0 0.7966009)
(9.003152 1.406512e-32 0 0.1259925 0 0.8867244)
(9.306514 0 0 0.1461921 0 0.9695448)
(9.488332 -2.825585e-17 0 0.1669137 0 1.044373)
(9.565183 0 0 0.1879692 0 1.111017)
(9.554871 5.598739e-17 0 0.2092004 0 1.169657)
(9.474795 0 0 0.2304769 0 1.220735)
(9.340908 -5.345515e-17 0 0.2516928 0 1.264848)
(9.167163 0 0 0.2727632 0 1.302679)
(8.965315 9.945427e-17 0 0.2936209 0 1.334928)
(8.744962 9.523258e-17 0 0.3142142 0 1.362285)
(8.513728 0 0 0.3345052 0 1.385396)
(8.277509 -8.638641e-17 0 0.3544693 0 1.404856)
(8.040757 -8.192921e-17 0 0.3740917 0 1.421201)
(7.80675 -1.550603e-16 0 0.3933616 0 1.434896)
(7.577828 0 0 0.4122688 0 1.446335)
(7.355594 0 0 0.4308017 0 1.455851)
(7.141075 0 0 0.4489464 0 1.463716)
(6.93485 0 0 0.4666853 0 1.470149)
(6.737156 1.15026e-16 0 0.4839975 0 1.475323)
(6.547968 -3.240537e-16 0 0.5008584 0 1.479368)
(6.367056 0 0 0.5172393 0 1.48238)
(6.194035 1.901005e-16 0 0.5331079 0 1.484417)
(6.028399 0 0 0.5484278 0 1.485512)
(5.869546 1.668527e-16 0 0.5631589 0 1.485668)
(5.716795 0 0 0.5772571 0 1.484862)
(5.569405 0 0 0.5906744 0 1.483049)
(5.426583 0 0 0.6033591 0 1.48016)
(5.287498 0 0 0.6152556 0 1.476109)
(5.151295 0 0 0.6263054 0 1.470789)
(5.01712 0 0 0.6364472 0 1.464084)
(4.884143 -4.13519e-16 0 0.6456185 0 1.455869)
(4.751599 -1.923384e-16 0 0.6537572 0 1.44602)
(4.618822 0 0 0.6608041 0 1.434425)
(4.485285 0 0 0.6667052 0 1.420991)
(4.350608 0 0 0.671414 0 1.405651)
(4.214564 2.837965e-16 0 0.674893 0 1.388367)
(4.077052 5.800199e-31 0 0.6771137 0 1.369126)
(3.938069 0 0 0.6780568 0 1.347939)
(3.797685 0 0 0.6777114 0 1.324835)
(3.656018 0 0 0.6760744 0 1.299859)
(3.513223 0 0 0.6731503 0 1.273065)
(3.369487 0 0 0.6689505 0 1.244521)
(3.225031 -5.431433e-32 0 0.6634929 0 1.214306)
(3.080119 0 0 0.6568012 0 1.182508)
(2.935066 0 0 0.6489031 0 1.149231)
(2.790259 -9.363063e-32 0 0.6398284 0 1.114592)
(2.646172 0 0 0.6296044 0 1.078722)
(2.503387 0 0 0.61825 0 1.041767)
(2.362621 0 0 0.6057657 0 1.003885)
(2.224751 -5.908471e-16 0 0.5921196 0 0.9652396)
(2.090837 -2.627129e-16 0 0.5772258 0 0.9259919)
(1.962156 0 0 0.5609139 0 0.8862822)
(1.839604 0 0 0.5433276 0 0.8464708)
(1.723718 -3.660766e-16 0 0.524983 0 0.807174)
(1.615285 0 0 0.5064179 0 0.7690651)
(1.515316 0 0 0.4881933 0 0.7328742)
(1.425017 0 0 0.4708865 0 0.6993791)
(1.345732 0 0 0.4550785 0 0.6693852)
(1.2789 0 0 0.4413398 0 0.6437058)
(1.226025 0 0 0.4302188 0 0.6231466)
(1.188742 0 0 0.4222499 0 0.6085263)
(1.168884 -3.181884e-16 0 0.4179641 0 0.6006989)
)
;
    }
    wall
    {
        type            calculated;
        value           uniform (3.333333e-11 0 0 1e-10 0 6.666667e-11);
    }
    frontAndBack
    {
        type            empty;
    }
    middle
    {
        type            symmetryPlane;
        value           nonuniform List<symmTensor> 2((1.168884 0 0 0.6006989 0 0.6006989) (1.168884 0 0 0.6006989 0 0.6006989));
    }
}


// ************************************************************************* //
