/*--------------------------------*- C++ -*----------------------------------*\
| =========                 |                                                 |
| \\      /  F ield         | foam-extend: Open Source CFD                    |
|  \\    /   O peration     | Version:     4.0                                |
|   \\  /    A nd           | Web:         http://www.foam-extend.org         |
|    \\/     M anipulation  |                                                 |
\*---------------------------------------------------------------------------*/
FoamFile
{
    version     2.0;
    format      ascii;
    class       volSymmTensorField;
    location    "100";
    object      NLT;
}
// * * * * * * * * * * * * * * * * * * * * * * * * * * * * * * * * * * * * * //

dimensions      [0 0 -1 0 0 0 0];

internalField   nonuniform List<symmTensor> 
150
(
(0.02068634 0 0 3.772458e-06 0 0)
(0.02068632 0 0 3.772454e-06 0 0)
(1.055665 0 0 0.0008660541 0 0)
(1.055664 0 0 0.000866053 0 0)
(6.39381 0 0 0.0114569 0 0)
(6.393801 0 0 0.01145689 0 0)
(20.37676 0 0 0.05992339 0 0)
(20.37674 0 0 0.05992333 0 0)
(46.07974 0 0 0.1917314 0 0)
(46.07971 0 0 0.1917313 0 0)
(83.78469 0 0 0.451823 0 0)
(83.78467 0 0 0.4518229 0 0)
(131.0009 -2.184257e-17 0 0.8661784 0 0)
(131.0009 2.184257e-17 0 0.8661787 0 0)
(214.8762 0 0 1.677123 0 0)
(214.8764 0 0 1.677124 0 0)
(322.1298 0 0 2.901036 0 0)
(322.1301 1.324284e-16 0 2.90104 0 0)
(446.2626 0 0 4.577713 0 0)
(446.2632 0 0 4.57772 0 0)
(586.3295 0 0 6.799095 0 0)
(586.3304 0 0 6.799106 0 0)
(741.674 7.606745e-16 0 9.675865 0 0)
(741.6751 -7.606757e-16 0 9.675881 0 0)
(911.4924 0 0 13.33231 0 0)
(911.4939 0 0 13.33233 0 0)
(1094.457 -1.273527e-15 0 17.89773 0 0)
(1094.459 1.273529e-15 0 17.89776 0 0)
(1288.491 0 0 23.49563 0 0)
(1288.493 0 0 23.49567 0 0)
(1490.692 1.947e-15 0 30.23115 0 0)
(1490.694 0 0 30.23119 0 0)
(1697.395 0 0 38.17829 0 0)
(1697.398 0 0 38.17834 0 0)
(1904.383 -5.522478e-15 0 47.36873 0 0)
(1904.385 0 0 47.36879 0 0)
(2107.159 0 0 57.78385 0 0)
(2107.161 0 0 57.78392 0 0)
(2301.257 1.463608e-14 0 69.3508 0 0)
(2301.26 -7.318049e-15 0 69.35088 0 0)
(2482.514 0 0 81.94287 0 0)
(2482.516 0 0 81.94295 0 0)
(2647.266 -1.821998e-14 0 95.38355 0 0)
(2647.268 0 0 95.38363 0 0)
(2792.474 -1.989091e-14 0 109.4535 0 0)
(2792.476 0 0 109.4536 0 0)
(2915.769 0 0 123.8995 0 0)
(2915.771 0 0 123.8996 0 0)
(3015.446 2.277209e-14 0 138.4448 0 0)
(3015.448 0 0 138.4449 0 0)
(3090.401 2.391069e-14 0 152.7972 0 0)
(3090.403 0 0 152.7973 0 0)
(3140.021 4.962184e-14 0 166.654 0 0)
(3140.022 0 0 166.6541 0 0)
(3164.108 0 0 179.7079 0 0)
(3164.109 0 0 179.708 0 0)
(3162.817 0 0 191.6537 0 0)
(3162.819 0 0 191.6539 0 0)
(3136.597 0 0 202.1942 0 0)
(3136.6 0 0 202.1943 0 0)
(3086.146 -5.147984e-14 0 211.0464 0 0)
(3086.149 5.147988e-14 0 211.0465 0 0)
(3012.378 -5.05781e-14 0 217.9479 0 0)
(3012.381 0 0 217.9481 0 0)
(2916.401 1.47479e-13 0 222.6632 0 0)
(2916.404 0 0 222.6634 0 0)
(2799.497 0 0 224.9894 0 0)
(2799.5 0 0 224.9896 0 0)
(2663.126 -8.982888e-14 0 224.7628 0 0)
(2663.13 0 0 224.7631 0 0)
(2508.932 0 0 221.8659 0 0)
(2508.935 0 0 221.8663 0 0)
(2338.771 -1.564403e-13 0 216.235 0 0)
(2338.774 7.822025e-14 0 216.2353 0 0)
(2154.764 0 0 207.8707 0 0)
(2154.768 0 0 207.8711 0 0)
(1959.392 0 0 196.8529 0 0)
(1959.397 0 0 196.8533 0 0)
(1755.626 0 0 183.3603 0 0)
(1755.631 0 0 183.3608 0 0)
(1547.109 0 0 167.699 0 0)
(1547.114 0 0 167.6995 0 0)
(1338.348 0 0 150.334 0 0)
(1338.353 0 0 150.3345 0 0)
(1134.807 0 0 131.9141 0 0)
(1134.812 0 0 131.9146 0 0)
(942.7021 1.156098e-13 0 113.263 0 0)
(942.7066 0 0 113.2636 0 0)
(768.2893 4.627364e-14 0 95.30306 0 0)
(768.2929 0 0 95.3035 0 0)
(616.6549 0 0 78.89937 0 0)
(616.6578 0 0 78.89975 0 0)
(490.4485 0 0 64.6708 0 0)
(490.4505 0 0 64.67106 0 0)
(389.3107 0 0 52.86599 0 0)
(389.312 0 0 52.86616 0 0)
(310.39 -3.450928e-14 0 43.37874 0 0)
(310.3908 0 0 43.37885 0 0)
(249.5823 -2.71546e-14 0 35.87846 0 0)
(249.5827 2.715465e-14 0 35.87852 0 0)
(202.7309 0 0 29.96313 0 0)
(202.7312 0 0 29.96317 0 0)
(166.315 0 0 25.26238 0 0)
(166.3152 0 0 25.26241 0 0)
(137.6323 0 0 21.47827 0 0)
(137.6324 0 0 21.47828 0 0)
(114.7075 0 0 18.38652 0 0)
(114.7076 0 0 18.38652 0 0)
(96.12213 0 0 15.82281 0 0)
(96.12217 0 0 15.82281 0 0)
(80.85639 1.534001e-14 0 13.66731 0 0)
(80.85643 -1.534002e-14 0 13.66731 0 0)
(68.17075 0 0 11.83207 0 0)
(68.17078 0 0 11.83208 0 0)
(57.52202 0 0 10.25185 0 0)
(57.52205 0 0 10.25186 0 0)
(48.50593 8.580109e-15 0 8.877658 0 0)
(48.50592 -8.580108e-15 0 8.877657 0 0)
(40.81787 0 0 7.672261 0 0)
(40.81787 0 0 7.67226 0 0)
(34.22581 0 0 6.607127 0 0)
(34.22581 0 0 6.607126 0 0)
(28.55106 0 0 5.660193 0 0)
(28.55105 0 0 5.660193 0 0)
(23.6561 1.524819e-14 0 4.814618 0 0)
(23.6561 0 0 4.814617 0 0)
(19.43248 0 0 4.057258 0 0)
(19.43248 6.112371e-15 0 4.057258 0 0)
(15.78486 0 0 3.376046 0 0)
(15.78486 0 0 3.376047 0 0)
(12.63872 0 0 2.764307 0 0)
(12.63873 0 0 2.764308 0 0)
(9.935909 0 0 2.219017 0 0)
(9.935913 5.757308e-15 0 2.219017 0 0)
(7.620195 0 0 1.735423 0 0)
(7.620203 0 0 1.735424 0 0)
(5.666172 0 0 1.314159 0 0)
(5.666175 0 0 1.31416 0 0)
(4.003787 0 0 0.9443783 0 0)
(4.003788 0 0 0.9443784 0 0)
(2.734492 0 0 0.6549001 0 0)
(2.734488 0 0 0.6548992 0 0)
(1.475051 0 0 0.3580024 0 0)
(1.475044 0 0 0.3580008 0 0)
(1.273857 0 0 0.312561 0 0)
(1.273857 0 0 0.3125609 0 0)
(-0.3754659 -0 -0 -0.09285916 -0 -0)
(-0.3754648 -0 -0 -0.09285891 -0 -0)
(0.4171673 3.608512e-16 0 0.103618 0 0)
(0.4171665 0 0 0.1036178 0 0)
)
;

boundaryField
{
    leftandright
    {
        type            cyclic;
        value           nonuniform List<symmTensor> 
150
(
(0.02068633 0 0 3.772456e-06 0 0)
(1.055665 0 0 0.0008660535 0 0)
(6.393805 0 0 0.01145689 0 0)
(20.37675 0 0 0.05992336 0 0)
(46.07972 0 0 0.1917313 0 0)
(83.78468 0 0 0.4518229 0 0)
(131.0009 1.201103e-32 0 0.8661785 0 0)
(214.8763 0 0 1.677123 0 0)
(322.13 6.621415e-17 0 2.901038 0 0)
(446.2629 0 0 4.577717 0 0)
(586.3299 0 0 6.7991 0 0)
(741.6746 5.963217e-32 0 9.675873 0 0)
(911.4932 0 0 13.33232 0 0)
(1094.458 -3.309101e-31 0 17.89774 0 0)
(1288.492 0 0 23.49565 0 0)
(1490.693 9.735005e-16 0 30.23117 0 0)
(1697.396 0 0 38.17831 0 0)
(1904.384 -2.761241e-15 0 47.36876 0 0)
(2107.16 0 0 57.78389 0 0)
(2301.259 3.659023e-15 0 69.35084 0 0)
(2482.515 0 0 81.94291 0 0)
(2647.267 -9.109994e-15 0 95.38359 0 0)
(2792.475 -9.945459e-15 0 109.4536 0 0)
(2915.77 0 0 123.8995 0 0)
(3015.447 1.138605e-14 0 138.4449 0 0)
(3090.402 1.195535e-14 0 152.7973 0 0)
(3140.021 2.481093e-14 0 166.654 0 0)
(3164.109 0 0 179.708 0 0)
(3162.818 0 0 191.6538 0 0)
(3136.598 0 0 202.1943 0 0)
(3086.147 0 0 211.0464 0 0)
(3012.38 -2.528906e-14 0 217.948 0 0)
(2916.402 7.373952e-14 0 222.6633 0 0)
(2799.498 0 0 224.9895 0 0)
(2663.128 -4.491447e-14 0 224.763 0 0)
(2508.934 0 0 221.8661 0 0)
(2338.772 -3.91101e-14 0 216.2352 0 0)
(2154.766 0 0 207.8709 0 0)
(1959.395 0 0 196.8531 0 0)
(1755.629 0 0 183.3606 0 0)
(1547.111 0 0 167.6992 0 0)
(1338.351 0 0 150.3342 0 0)
(1134.81 0 0 131.9143 0 0)
(942.7043 5.780502e-14 0 113.2633 0 0)
(768.2911 2.313688e-14 0 95.30328 0 0)
(616.6563 0 0 78.89956 0 0)
(490.4495 0 0 64.67093 0 0)
(389.3114 0 0 52.86607 0 0)
(310.3904 -1.725466e-14 0 43.37879 0 0)
(249.5825 -3.007209e-29 0 35.87849 0 0)
(202.7311 0 0 29.96315 0 0)
(166.3151 0 0 25.2624 0 0)
(137.6323 0 0 21.47828 0 0)
(114.7076 0 0 18.38652 0 0)
(96.12215 0 0 15.82281 0 0)
(80.85641 1.347701e-30 0 13.66731 0 0)
(68.17076 0 0 11.83207 0 0)
(57.52204 0 0 10.25186 0 0)
(48.50593 1.750809e-30 0 8.877657 0 0)
(40.81787 0 0 7.67226 0 0)
(34.22581 0 0 6.607126 0 0)
(28.55106 0 0 5.660193 0 0)
(23.6561 7.624096e-15 0 4.814617 0 0)
(19.43248 3.056186e-15 0 4.057258 0 0)
(15.78486 0 0 3.376047 0 0)
(12.63873 0 0 2.764307 0 0)
(9.935911 2.878653e-15 0 2.219017 0 0)
(7.620199 0 0 1.735424 0 0)
(5.666173 0 0 1.314159 0 0)
(4.003788 0 0 0.9443783 0 0)
(2.73449 0 0 0.6548996 0 0)
(1.475047 0 0 0.3580016 0 0)
(1.273857 0 0 0.3125609 0 0)
(-0.3754653 -0 -0 -0.09285903 -0 -0)
(0.4171669 1.804254e-16 0 0.1036179 0 0)
(0.02068633 0 0 3.772456e-06 0 0)
(1.055665 0 0 0.0008660535 0 0)
(6.393805 0 0 0.01145689 0 0)
(20.37675 0 0 0.05992336 0 0)
(46.07972 0 0 0.1917313 0 0)
(83.78468 0 0 0.4518229 0 0)
(131.0009 1.334559e-32 0 0.8661785 0 0)
(214.8763 0 0 1.677123 0 0)
(322.13 6.621415e-17 0 2.901038 0 0)
(446.2629 0 0 4.577717 0 0)
(586.3299 0 0 6.7991 0 0)
(741.6746 5.963217e-32 0 9.675873 0 0)
(911.4932 0 0 13.33232 0 0)
(1094.458 -3.309101e-31 0 17.89774 0 0)
(1288.492 0 0 23.49565 0 0)
(1490.693 9.735005e-16 0 30.23117 0 0)
(1697.396 0 0 38.17831 0 0)
(1904.384 -2.761241e-15 0 47.36876 0 0)
(2107.16 0 0 57.78389 0 0)
(2301.259 3.659023e-15 0 69.35084 0 0)
(2482.515 0 0 81.94291 0 0)
(2647.267 -9.109994e-15 0 95.38359 0 0)
(2792.475 -9.945459e-15 0 109.4536 0 0)
(2915.77 0 0 123.8995 0 0)
(3015.447 1.138605e-14 0 138.4449 0 0)
(3090.402 1.195535e-14 0 152.7973 0 0)
(3140.021 2.481093e-14 0 166.654 0 0)
(3164.109 0 0 179.708 0 0)
(3162.818 0 0 191.6538 0 0)
(3136.598 0 0 202.1943 0 0)
(3086.147 0 0 211.0464 0 0)
(3012.38 -2.528906e-14 0 217.948 0 0)
(2916.402 7.373952e-14 0 222.6633 0 0)
(2799.498 0 0 224.9895 0 0)
(2663.128 -4.491447e-14 0 224.763 0 0)
(2508.934 0 0 221.8661 0 0)
(2338.772 -3.91101e-14 0 216.2352 0 0)
(2154.766 0 0 207.8709 0 0)
(1959.395 0 0 196.8531 0 0)
(1755.629 0 0 183.3606 0 0)
(1547.111 0 0 167.6992 0 0)
(1338.351 0 0 150.3342 0 0)
(1134.81 0 0 131.9143 0 0)
(942.7043 5.780502e-14 0 113.2633 0 0)
(768.2911 2.313688e-14 0 95.30328 0 0)
(616.6563 0 0 78.89956 0 0)
(490.4495 0 0 64.67093 0 0)
(389.3114 0 0 52.86607 0 0)
(310.3904 -1.725466e-14 0 43.37879 0 0)
(249.5825 -3.007209e-29 0 35.87849 0 0)
(202.7311 0 0 29.96315 0 0)
(166.3151 0 0 25.2624 0 0)
(137.6323 0 0 21.47828 0 0)
(114.7076 0 0 18.38652 0 0)
(96.12215 0 0 15.82281 0 0)
(80.85641 1.347701e-30 0 13.66731 0 0)
(68.17076 0 0 11.83207 0 0)
(57.52204 0 0 10.25186 0 0)
(48.50593 1.750809e-30 0 8.877657 0 0)
(40.81787 0 0 7.67226 0 0)
(34.22581 0 0 6.607126 0 0)
(28.55106 0 0 5.660193 0 0)
(23.6561 7.624096e-15 0 4.814617 0 0)
(19.43248 3.056186e-15 0 4.057258 0 0)
(15.78486 0 0 3.376047 0 0)
(12.63873 0 0 2.764307 0 0)
(9.935911 2.878653e-15 0 2.219017 0 0)
(7.620199 0 0 1.735424 0 0)
(5.666173 0 0 1.314159 0 0)
(4.003788 0 0 0.9443783 0 0)
(2.73449 0 0 0.6548996 0 0)
(1.475047 0 0 0.3580016 0 0)
(1.273857 0 0 0.3125609 0 0)
(-0.3754653 -0 -0 -0.09285903 -0 -0)
(0.4171669 1.804254e-16 0 0.1036179 0 0)
)
;
    }
    wall
    {
        type            calculated;
        value           nonuniform List<symmTensor> 2((5.856663e-07 0 0 3.806831e-07 0 0) (5.856654e-07 0 0 3.806825e-07 0 0));
    }
    frontAndBack
    {
        type            empty;
    }
    middle
    {
        type            symmetryPlane;
        value           nonuniform List<symmTensor> 2((0.4171673 0 0 0.103618 0 0) (0.4171665 0 0 0.1036178 0 0));
    }
}


// ************************************************************************* //
