/*--------------------------------*- C++ -*----------------------------------*\
| =========                 |                                                 |
| \\      /  F ield         | foam-extend: Open Source CFD                    |
|  \\    /   O peration     | Version:     4.0                                |
|   \\  /    A nd           | Web:         http://www.foam-extend.org         |
|    \\/     M anipulation  |                                                 |
\*---------------------------------------------------------------------------*/
FoamFile
{
    version     2.0;
    format      ascii;
    class       volSymmTensorField;
    location    "100";
    object      NLTPlus;
}
// * * * * * * * * * * * * * * * * * * * * * * * * * * * * * * * * * * * * * //

dimensions      [0 2 -2 0 0 0 0];

internalField   nonuniform List<symmTensor> 
150
(
(3.506161e-05 0 0 6.393998e-09 0 0)
(3.506156e-05 0 0 6.393991e-09 0 0)
(0.001789264 0 0 1.467888e-06 0 0)
(0.001789261 0 0 1.467887e-06 0 0)
(0.01083697 0 0 1.941848e-05 0 0)
(0.01083695 0 0 1.941846e-05 0 0)
(0.03453689 0 0 0.0001015651 0 0)
(0.03453685 0 0 0.000101565 0 0)
(0.07810127 0 0 0.0003249685 0 0)
(0.07810121 0 0 0.0003249683 0 0)
(0.142008 0 0 0.0007658018 0 0)
(0.1420079 0 0 0.0007658016 0 0)
(0.2220354 -3.702131e-20 0 0.001468099 0 0)
(0.2220355 3.702132e-20 0 0.0014681 0 0)
(0.3641971 0 0 0.002842582 0 0)
(0.3641973 0 0 0.002842584 0 0)
(0.5459829 0 0 0.004917012 0 0)
(0.5459834 2.244549e-19 0 0.004917017 0 0)
(0.7563775 0 0 0.007758838 0 0)
(0.7563784 0 0 0.007758848 0 0)
(0.993779 0 0 0.01152389 0 0)
(0.9937805 0 0 0.01152391 0 0)
(1.257075 1.289279e-18 0 0.01639977 0 0)
(1.257077 -1.289281e-18 0 0.0163998 0 0)
(1.544903 0 0 0.02259713 0 0)
(1.544905 0 0 0.02259717 0 0)
(1.855012 -2.15852e-18 0 0.03033514 0 0)
(1.855015 2.158524e-18 0 0.03033519 0 0)
(2.183884 0 0 0.03982311 0 0)
(2.183887 0 0 0.03982317 0 0)
(2.526596 3.3e-18 0 0.05123925 0 0)
(2.5266 0 0 0.05123932 0 0)
(2.876942 0 0 0.06470897 0 0)
(2.876946 0 0 0.06470906 0 0)
(3.227768 -9.360135e-18 0 0.080286 0 0)
(3.227772 0 0 0.0802861 0 0)
(3.571456 0 0 0.09793875 0 0)
(3.57146 0 0 0.09793886 0 0)
(3.900437 2.480692e-17 0 0.1175438 0 0)
(3.900441 -1.240348e-17 0 0.1175439 0 0)
(4.207652 0 0 0.1388862 0 0)
(4.207655 0 0 0.1388864 0 0)
(4.486893 -3.088133e-17 0 0.1616671 0 0)
(4.486896 0 0 0.1616672 0 0)
(4.733008 -3.371341e-17 0 0.1855145 0 0)
(4.733011 0 0 0.1855146 0 0)
(4.941982 0 0 0.2099992 0 0)
(4.941985 0 0 0.2099993 0 0)
(5.110927 3.859677e-17 0 0.2346523 0 0)
(5.11093 0 0 0.2346525 0 0)
(5.237969 4.05266e-17 0 0.2589784 0 0)
(5.237972 0 0 0.2589786 0 0)
(5.32207 8.410483e-17 0 0.2824644 0 0)
(5.322072 0 0 0.2824646 0 0)
(5.362896 0 0 0.3045898 0 0)
(5.362898 0 0 0.3045899 0 0)
(5.360707 0 0 0.3248368 0 0)
(5.360711 0 0 0.3248371 0 0)
(5.316267 0 0 0.342702 0 0)
(5.316271 0 0 0.3427023 0 0)
(5.230757 -8.725397e-17 0 0.3577057 0 0)
(5.230761 8.725405e-17 0 0.357706 0 0)
(5.105727 -8.572561e-17 0 0.3694033 0 0)
(5.105732 0 0 0.3694036 0 0)
(4.943053 2.499644e-16 0 0.3773953 0 0)
(4.943058 0 0 0.3773957 0 0)
(4.744911 0 0 0.381338 0 0)
(4.744916 0 0 0.3813384 0 0)
(4.513774 -1.522524e-16 0 0.380954 0 0)
(4.51378 0 0 0.3809546 0 0)
(4.252427 0 0 0.376044 0 0)
(4.252434 0 0 0.3760446 0 0)
(3.964019 -2.65153e-16 0 0.3665001 0 0)
(3.964025 1.325767e-16 0 0.3665006 0 0)
(3.652143 0 0 0.3523233 0 0)
(3.65215 0 0 0.352324 0 0)
(3.321005 0 0 0.333649 0 0)
(3.321012 0 0 0.3336498 0 0)
(2.975638 0 0 0.3107803 0 0)
(2.975646 0 0 0.3107811 0 0)
(2.622219 0 0 0.2842356 0 0)
(2.622227 0 0 0.2842365 0 0)
(2.268387 0 0 0.2548034 0 0)
(2.268396 0 0 0.2548043 0 0)
(1.923402 0 0 0.2235832 0 0)
(1.92341 0 0 0.2235841 0 0)
(1.5978 1.959488e-16 0 0.1919713 0 0)
(1.597808 0 0 0.1919722 0 0)
(1.302185 7.842992e-17 0 0.1615306 0 0)
(1.302192 0 0 0.1615314 0 0)
(1.045178 0 0 0.1337278 0 0)
(1.045183 0 0 0.1337284 0 0)
(0.8312689 0 0 0.1096115 0 0)
(0.8312722 0 0 0.109612 0 0)
(0.6598488 0 0 0.08960338 0 0)
(0.659851 0 0 0.08960368 0 0)
(0.5260849 -5.849032e-17 0 0.0735233 0 0)
(0.5260863 0 0 0.07352349 0 0)
(0.4230209 -4.602475e-17 0 0.06081096 0 0)
(0.4230216 4.602483e-17 0 0.06081107 0 0)
(0.3436118 0 0 0.05078497 0 0)
(0.3436123 0 0 0.05078504 0 0)
(0.28189 0 0 0.04281761 0 0)
(0.2818902 0 0 0.04281765 0 0)
(0.2332751 0 0 0.03640385 0 0)
(0.2332752 0 0 0.03640388 0 0)
(0.1944196 0 0 0.03116359 0 0)
(0.1944197 0 0 0.0311636 0 0)
(0.1629189 0 0 0.02681832 0 0)
(0.162919 0 0 0.02681833 0 0)
(0.1370447 2.600003e-17 0 0.02316493 0 0)
(0.1370448 -2.600004e-17 0 0.02316494 0 0)
(0.1155437 0 0 0.02005436 0 0)
(0.1155437 0 0 0.02005437 0 0)
(0.09749496 0 0 0.01737603 0 0)
(0.09749502 0 0 0.01737604 0 0)
(0.08221345 1.454256e-17 0 0.01504688 0 0)
(0.08221345 -1.454256e-17 0 0.01504688 0 0)
(0.06918285 0 0 0.01300383 0 0)
(0.06918284 0 0 0.01300383 0 0)
(0.05800986 0 0 0.01119852 0 0)
(0.05800985 0 0 0.01119852 0 0)
(0.04839163 0 0 0.00959355 0 0)
(0.04839163 0 0 0.009593549 0 0)
(0.04009509 2.58444e-17 0 0.00816037 0 0)
(0.04009509 0 0 0.008160369 0 0)
(0.03293641 0 0 0.00687671 0 0)
(0.03293641 1.035995e-17 0 0.006876709 0 0)
(0.026754 0 0 0.005722114 0 0)
(0.02675401 0 0 0.005722115 0 0)
(0.02142157 0 0 0.004685266 0 0)
(0.02142158 0 0 0.004685269 0 0)
(0.01684053 0 0 0.003761046 0 0)
(0.01684053 9.758151e-18 0 0.003761047 0 0)
(0.01291559 0 0 0.002941395 0 0)
(0.0129156 0 0 0.002941398 0 0)
(0.009603683 0 0 0.002227389 0 0)
(0.009603688 0 0 0.00222739 0 0)
(0.006786082 0 0 0.001600641 0 0)
(0.006786082 0 0 0.001600642 0 0)
(0.004634733 0 0 0.00111 0 0)
(0.004634727 0 0 0.001109999 0 0)
(0.002500086 0 0 0.0006067838 0 0)
(0.002500075 0 0 0.0006067811 0 0)
(0.00215908 0 0 0.0005297645 0 0)
(0.002159079 0 0 0.0005297643 0 0)
(-0.0006363829 -0 -0 -0.0001573884 -0 -0)
(-0.0006363812 -0 -0 -0.000157388 -0 -0)
(0.0007070633 6.116123e-19 0 0.0001756237 0 0)
(0.000707062 0 0 0.0001756234 0 0)
)
;

boundaryField
{
    leftandright
    {
        type            cyclic;
        value           nonuniform List<symmTensor> 
150
(
(3.506158e-05 0 0 6.393994e-09 0 0)
(0.001789263 0 0 1.467888e-06 0 0)
(0.01083696 0 0 1.941847e-05 0 0)
(0.03453687 0 0 0.000101565 0 0)
(0.07810124 0 0 0.0003249684 0 0)
(0.142008 0 0 0.0007658017 0 0)
(0.2220354 2.035769e-35 0 0.001468099 0 0)
(0.3641972 0 0 0.002842583 0 0)
(0.5459831 1.122274e-19 0 0.004917014 0 0)
(0.756378 0 0 0.007758843 0 0)
(0.9937797 0 0 0.0115239 0 0)
(1.257076 1.010715e-34 0 0.01639979 0 0)
(1.544904 0 0 0.02259715 0 0)
(1.855014 -5.608647e-34 0 0.03033516 0 0)
(2.183886 0 0 0.03982314 0 0)
(2.526598 1.650001e-18 0 0.05123928 0 0)
(2.876944 0 0 0.06470902 0 0)
(3.22777 -4.68007e-18 0 0.08028605 0 0)
(3.571458 0 0 0.09793881 0 0)
(3.900439 6.201734e-18 0 0.1175438 0 0)
(4.207654 0 0 0.1388863 0 0)
(4.486894 -1.544067e-17 0 0.1616671 0 0)
(4.73301 -1.685671e-17 0 0.1855145 0 0)
(4.941983 0 0 0.2099993 0 0)
(5.110929 1.929839e-17 0 0.2346524 0 0)
(5.237971 2.026331e-17 0 0.2589785 0 0)
(5.322071 4.205242e-17 0 0.2824645 0 0)
(5.362897 0 0 0.3045898 0 0)
(5.360709 0 0 0.324837 0 0)
(5.316269 0 0 0.3427022 0 0)
(5.230759 0 0 0.3577059 0 0)
(5.10573 -4.286283e-17 0 0.3694035 0 0)
(4.943056 1.249823e-16 0 0.3773955 0 0)
(4.744913 0 0 0.3813382 0 0)
(4.513777 -7.612623e-17 0 0.3809543 0 0)
(4.25243 0 0 0.3760443 0 0)
(3.964022 -6.628831e-17 0 0.3665004 0 0)
(3.652146 0 0 0.3523237 0 0)
(3.321008 0 0 0.3336494 0 0)
(2.975642 0 0 0.3107807 0 0)
(2.622223 0 0 0.2842361 0 0)
(2.268392 0 0 0.2548038 0 0)
(1.923406 0 0 0.2235837 0 0)
(1.597804 9.797463e-17 0 0.1919717 0 0)
(1.302188 3.921505e-17 0 0.161531 0 0)
(1.04518 0 0 0.1337281 0 0)
(0.8312705 0 0 0.1096118 0 0)
(0.6598499 0 0 0.08960353 0 0)
(0.5260856 -2.92452e-17 0 0.07352339 0 0)
(0.4230212 -5.096965e-32 0 0.06081101 0 0)
(0.343612 0 0 0.050785 0 0)
(0.2818901 0 0 0.04281763 0 0)
(0.2332752 0 0 0.03640387 0 0)
(0.1944196 0 0 0.0311636 0 0)
(0.1629189 0 0 0.02681833 0 0)
(0.1370448 2.284239e-33 0 0.02316494 0 0)
(0.1155437 0 0 0.02005436 0 0)
(0.09749499 0 0 0.01737603 0 0)
(0.08221345 2.967474e-33 0 0.01504688 0 0)
(0.06918285 0 0 0.01300383 0 0)
(0.05800985 0 0 0.01119852 0 0)
(0.04839163 0 0 0.009593549 0 0)
(0.04009509 1.29222e-17 0 0.00816037 0 0)
(0.03293641 5.179977e-18 0 0.006876709 0 0)
(0.026754 0 0 0.005722114 0 0)
(0.02142157 0 0 0.004685267 0 0)
(0.01684053 4.879074e-18 0 0.003761046 0 0)
(0.01291559 0 0 0.002941396 0 0)
(0.009603686 0 0 0.002227389 0 0)
(0.006786082 0 0 0.001600642 0 0)
(0.00463473 0 0 0.00111 0 0)
(0.002500081 0 0 0.0006067825 0 0)
(0.00215908 0 0 0.0005297644 0 0)
(-0.0006363821 -0 -0 -0.0001573882 -0 -0)
(0.0007070627 3.058059e-19 0 0.0001756236 0 0)
(3.506158e-05 0 0 6.393994e-09 0 0)
(0.001789263 0 0 1.467888e-06 0 0)
(0.01083696 0 0 1.941847e-05 0 0)
(0.03453687 0 0 0.000101565 0 0)
(0.07810124 0 0 0.0003249684 0 0)
(0.142008 0 0 0.0007658017 0 0)
(0.2220354 2.261965e-35 0 0.001468099 0 0)
(0.3641972 0 0 0.002842583 0 0)
(0.5459831 1.122274e-19 0 0.004917014 0 0)
(0.756378 0 0 0.007758843 0 0)
(0.9937797 0 0 0.0115239 0 0)
(1.257076 1.010715e-34 0 0.01639979 0 0)
(1.544904 0 0 0.02259715 0 0)
(1.855014 -5.608647e-34 0 0.03033516 0 0)
(2.183886 0 0 0.03982314 0 0)
(2.526598 1.650001e-18 0 0.05123928 0 0)
(2.876944 0 0 0.06470902 0 0)
(3.22777 -4.68007e-18 0 0.08028605 0 0)
(3.571458 0 0 0.09793881 0 0)
(3.900439 6.201734e-18 0 0.1175438 0 0)
(4.207654 0 0 0.1388863 0 0)
(4.486894 -1.544067e-17 0 0.1616671 0 0)
(4.73301 -1.685671e-17 0 0.1855145 0 0)
(4.941983 0 0 0.2099993 0 0)
(5.110929 1.929839e-17 0 0.2346524 0 0)
(5.237971 2.026331e-17 0 0.2589785 0 0)
(5.322071 4.205242e-17 0 0.2824645 0 0)
(5.362897 0 0 0.3045898 0 0)
(5.360709 0 0 0.324837 0 0)
(5.316269 0 0 0.3427022 0 0)
(5.230759 0 0 0.3577059 0 0)
(5.10573 -4.286283e-17 0 0.3694035 0 0)
(4.943056 1.249823e-16 0 0.3773955 0 0)
(4.744913 0 0 0.3813382 0 0)
(4.513777 -7.612623e-17 0 0.3809543 0 0)
(4.25243 0 0 0.3760443 0 0)
(3.964022 -6.628831e-17 0 0.3665004 0 0)
(3.652146 0 0 0.3523237 0 0)
(3.321008 0 0 0.3336494 0 0)
(2.975642 0 0 0.3107807 0 0)
(2.622223 0 0 0.2842361 0 0)
(2.268392 0 0 0.2548038 0 0)
(1.923406 0 0 0.2235837 0 0)
(1.597804 9.797463e-17 0 0.1919717 0 0)
(1.302188 3.921505e-17 0 0.161531 0 0)
(1.04518 0 0 0.1337281 0 0)
(0.8312705 0 0 0.1096118 0 0)
(0.6598499 0 0 0.08960353 0 0)
(0.5260856 -2.92452e-17 0 0.07352339 0 0)
(0.4230212 -5.096965e-32 0 0.06081101 0 0)
(0.343612 0 0 0.050785 0 0)
(0.2818901 0 0 0.04281763 0 0)
(0.2332752 0 0 0.03640387 0 0)
(0.1944196 0 0 0.0311636 0 0)
(0.1629189 0 0 0.02681833 0 0)
(0.1370448 2.284239e-33 0 0.02316494 0 0)
(0.1155437 0 0 0.02005436 0 0)
(0.09749499 0 0 0.01737603 0 0)
(0.08221345 2.967474e-33 0 0.01504688 0 0)
(0.06918285 0 0 0.01300383 0 0)
(0.05800985 0 0 0.01119852 0 0)
(0.04839163 0 0 0.009593549 0 0)
(0.04009509 1.29222e-17 0 0.00816037 0 0)
(0.03293641 5.179977e-18 0 0.006876709 0 0)
(0.026754 0 0 0.005722114 0 0)
(0.02142157 0 0 0.004685267 0 0)
(0.01684053 4.879074e-18 0 0.003761046 0 0)
(0.01291559 0 0 0.002941396 0 0)
(0.009603686 0 0 0.002227389 0 0)
(0.006786082 0 0 0.001600642 0 0)
(0.00463473 0 0 0.00111 0 0)
(0.002500081 0 0 0.0006067825 0 0)
(0.00215908 0 0 0.0005297644 0 0)
(-0.0006363821 -0 -0 -0.0001573882 -0 -0)
(0.0007070627 3.058059e-19 0 0.0001756236 0 0)
)
;
    }
    wall
    {
        type            calculated;
        value           nonuniform List<symmTensor> 2((9.926549e-10 0 0 6.452257e-10 0 0) (9.926534e-10 0 0 6.452247e-10 0 0));
    }
    frontAndBack
    {
        type            empty;
    }
    middle
    {
        type            symmetryPlane;
        value           nonuniform List<symmTensor> 2((0.0007070633 0 0 0.0001756237 0 0) (0.000707062 0 0 0.0001756234 0 0));
    }
}


// ************************************************************************* //
