/*--------------------------------*- C++ -*----------------------------------*\
| =========                 |                                                 |
| \\      /  F ield         | foam-extend: Open Source CFD                    |
|  \\    /   O peration     | Version:     4.0                                |
|   \\  /    A nd           | Web:         http://www.foam-extend.org         |
|    \\/     M anipulation  |                                                 |
\*---------------------------------------------------------------------------*/
FoamFile
{
    version     2.0;
    format      ascii;
    class       volScalarField;
    location    "100";
    object      nut;
}
// * * * * * * * * * * * * * * * * * * * * * * * * * * * * * * * * * * * * * //

dimensions      [0 2 -1 0 0 0 0];

internalField   nonuniform List<scalar> 
150
(
1.982448e-08
1.982448e-08
1.013337e-06
1.013338e-06
6.156476e-06
6.156477e-06
1.974288e-05
1.974288e-05
4.509652e-05
4.509653e-05
8.303718e-05
8.30372e-05
0.0001321192
0.0001321192
0.0002227742
0.0002227742
0.0003462285
0.0003462286
0.0004986562
0.0004986563
0.0006815771
0.0006815773
0.0008971983
0.0008971985
0.001148184
0.001148185
0.001437523
0.001437523
0.001768444
0.001768444
0.002144365
0.002144365
0.002568832
0.002568833
0.003045468
0.003045468
0.003577909
0.003577909
0.004169757
0.004169757
0.004824532
0.004824532
0.00554564
0.005545641
0.006336357
0.006336358
0.00719983
0.007199831
0.008139109
0.00813911
0.009157091
0.009157092
0.01025641
0.01025641
0.01143932
0.01143932
0.01270763
0.01270763
0.01406258
0.01406258
0.01550482
0.01550482
0.0170343
0.0170343
0.01865028
0.01865028
0.02035125
0.02035125
0.02213498
0.02213498
0.0239985
0.0239985
0.02593818
0.02593818
0.02794981
0.02794981
0.0300287
0.0300287
0.03216987
0.03216987
0.03436819
0.03436819
0.0366186
0.0366186
0.03891626
0.03891626
0.04125671
0.04125671
0.04363589
0.04363589
0.04605013
0.04605013
0.04849603
0.04849603
0.05097032
0.05097032
0.05346972
0.05346972
0.05599099
0.05599099
0.05853093
0.05853093
0.06108658
0.06108658
0.06365541
0.06365541
0.06623552
0.06623552
0.06882589
0.06882589
0.07142658
0.07142658
0.07403888
0.07403887
0.07666534
0.07666534
0.07930965
0.07930965
0.08197603
0.08197603
0.08466817
0.08466817
0.08738708
0.08738708
0.09012754
0.09012754
0.09287218
0.09287218
0.09558202
0.09558201
0.09825902
0.09825901
0.1009635
0.1009635
0.1037531
0.1037531
0.1066726
0.1066726
0.1097366
0.1097366
0.1129053
0.1129053
0.1160559
0.1160559
0.1189603
0.1189603
0.1212838
0.1212838
0.1226295
0.1226295
)
;

boundaryField
{
    leftandright
    {
        type            cyclic;
        value           nonuniform List<scalar> 
150
(
1.982448e-08
1.013337e-06
6.156477e-06
1.974288e-05
4.509652e-05
8.303719e-05
0.0001321192
0.0002227742
0.0003462285
0.0004986563
0.0006815772
0.0008971984
0.001148184
0.001437523
0.001768444
0.002144365
0.002568833
0.003045468
0.003577909
0.004169757
0.004824532
0.00554564
0.006336357
0.007199831
0.008139109
0.009157092
0.01025641
0.01143932
0.01270763
0.01406258
0.01550482
0.0170343
0.01865028
0.02035125
0.02213498
0.0239985
0.02593818
0.02794981
0.0300287
0.03216987
0.03436819
0.0366186
0.03891626
0.04125671
0.04363589
0.04605013
0.04849603
0.05097032
0.05346972
0.05599099
0.05853093
0.06108658
0.06365541
0.06623552
0.06882589
0.07142658
0.07403888
0.07666534
0.07930965
0.08197603
0.08466817
0.08738708
0.09012754
0.09287218
0.09558201
0.09825901
0.1009635
0.1037531
0.1066726
0.1097366
0.1129053
0.1160559
0.1189603
0.1212838
0.1226295
1.982448e-08
1.013337e-06
6.156477e-06
1.974288e-05
4.509652e-05
8.303719e-05
0.0001321192
0.0002227742
0.0003462285
0.0004986563
0.0006815772
0.0008971984
0.001148184
0.001437523
0.001768444
0.002144365
0.002568833
0.003045468
0.003577909
0.004169757
0.004824532
0.00554564
0.006336357
0.007199831
0.008139109
0.009157092
0.01025641
0.01143932
0.01270763
0.01406258
0.01550482
0.0170343
0.01865028
0.02035125
0.02213498
0.0239985
0.02593818
0.02794981
0.0300287
0.03216987
0.03436819
0.0366186
0.03891626
0.04125671
0.04363589
0.04605013
0.04849603
0.05097032
0.05346972
0.05599099
0.05853093
0.06108658
0.06365541
0.06623552
0.06882589
0.07142658
0.07403888
0.07666534
0.07930965
0.08197603
0.08466817
0.08738708
0.09012754
0.09287218
0.09558201
0.09825901
0.1009635
0.1037531
0.1066726
0.1097366
0.1129053
0.1160559
0.1189603
0.1212838
0.1226295
)
;
    }
    wall
    {
        type            nutLowReWallFunction;
        Cmu             0.09;
        kappa           0.41;
        E               9.8;
        value           nonuniform List<scalar> 2(5.607955e-13 5.607955e-13);
    }
    frontAndBack
    {
        type            empty;
    }
    middle
    {
        type            symmetryPlane;
        value           nonuniform List<scalar> 2(0.1226295 0.1226295);
    }
}


// ************************************************************************* //
