/*--------------------------------*- C++ -*----------------------------------*\
| =========                 |                                                 |
| \\      /  F ield         | foam-extend: Open Source CFD                    |
|  \\    /   O peration     | Version:     4.0                                |
|   \\  /    A nd           | Web:         http://www.foam-extend.org         |
|    \\/     M anipulation  |                                                 |
\*---------------------------------------------------------------------------*/
FoamFile
{
    version     2.0;
    format      ascii;
    class       volScalarField;
    location    "100";
    object      p;
}
// * * * * * * * * * * * * * * * * * * * * * * * * * * * * * * * * * * * * * //

dimensions      [0 2 -2 0 0 0 0];

internalField   nonuniform List<scalar> 
150
(
-3.103772e-09
-0.05000002
-0.0002092246
-0.05020924
-0.0009585066
-0.05095852
-0.002796472
-0.05279648
-0.006213316
-0.05621333
-0.0115763
-0.06157631
-0.01909671
-0.06909672
-0.02880829
-0.0788083
-0.04059948
-0.09059949
-0.05428067
-0.1042807
-0.06962073
-0.1196207
-0.08635617
-0.1363562
-0.1042054
-0.1542054
-0.1228878
-0.1728878
-0.14214
-0.19214
-0.1617268
-0.2117268
-0.1814476
-0.2314476
-0.2011382
-0.2511382
-0.2206704
-0.2706704
-0.2399496
-0.2899496
-0.2589109
-0.3089109
-0.2775158
-0.3275158
-0.2957485
-0.3457486
-0.3136135
-0.3636136
-0.3311324
-0.3811324
-0.348339
-0.3983391
-0.365274
-0.415274
-0.3819793
-0.4319793
-0.3984952
-0.4484953
-0.4148584
-0.4648584
-0.4310996
-0.4810996
-0.4472427
-0.4972427
-0.4633031
-0.5133031
-0.4792869
-0.529287
-0.4951898
-0.5451899
-0.5109957
-0.5609957
-0.5266751
-0.5766751
-0.5421842
-0.5921842
-0.5574612
-0.6074612
-0.5724239
-0.6224239
-0.5869647
-0.6369646
-0.6009454
-0.6509454
-0.6141951
-0.6641951
-0.6265126
-0.6765125
-0.6376822
-0.6876822
-0.6475012
-0.6975011
-0.6558121
-0.7058121
-0.6625249
-0.7125249
-0.6676168
-0.7176168
-0.671113
-0.721113
-0.6730615
-0.7230615
-0.6735144
-0.7235144
-0.6725198
-0.7225198
-0.6701203
-0.7201203
-0.6663554
-0.7163554
-0.6612635
-0.7112635
-0.6548831
-0.7048831
-0.6472532
-0.6972532
-0.6384117
-0.6884117
-0.6283924
-0.6783924
-0.617219
-0.667219
-0.6048961
-0.6548961
-0.5913956
-0.6413956
-0.5766102
-0.6266102
-0.5604151
-0.6104151
-0.54295
-0.59295
-0.5247017
-0.5747017
-0.5061919
-0.5561919
-0.488145
-0.538145
-0.4705023
-0.5205023
-0.4561649
-0.5061649
-0.4376895
-0.4876895
-0.4423129
-0.4923129
-0.3805875
-0.4305875
-0.5311466
-0.5811466
)
;

boundaryField
{
    leftandright
    {
        type            fan;
        patchType       cyclic;
        f               1(-0.1);
        value           nonuniform List<scalar> 
150
(
0.02499999
0.02479077
0.02404149
0.02220352
0.01878668
0.01342369
0.005903281
-0.003808297
-0.01559948
-0.02928067
-0.04462074
-0.06135618
-0.07920542
-0.09788783
-0.11714
-0.1367268
-0.1564476
-0.1761382
-0.1956704
-0.2149496
-0.2339109
-0.2525158
-0.2707485
-0.2886135
-0.3061324
-0.323339
-0.340274
-0.3569793
-0.3734952
-0.3898584
-0.4060996
-0.4222427
-0.4383031
-0.4542869
-0.4701899
-0.4859957
-0.5016751
-0.5171842
-0.5324612
-0.5474239
-0.5619647
-0.5759454
-0.5891951
-0.6015126
-0.6126822
-0.6225012
-0.6308121
-0.6375249
-0.6426168
-0.646113
-0.6480615
-0.6485144
-0.6475198
-0.6451203
-0.6413554
-0.6362635
-0.6298831
-0.6222532
-0.6134117
-0.6033924
-0.592219
-0.5798961
-0.5663956
-0.5516102
-0.5354151
-0.51795
-0.4997017
-0.4811919
-0.463145
-0.4455023
-0.4311649
-0.4126895
-0.4173129
-0.3555875
-0.5061466
-0.07500001
-0.07520923
-0.07595851
-0.07779648
-0.08121332
-0.08657631
-0.09409672
-0.1038083
-0.1155995
-0.1292807
-0.1446207
-0.1613562
-0.1792054
-0.1978878
-0.21714
-0.2367268
-0.2564476
-0.2761382
-0.2956704
-0.3149496
-0.3339109
-0.3525158
-0.3707485
-0.3886135
-0.4061324
-0.423339
-0.440274
-0.4569793
-0.4734952
-0.4898584
-0.5060996
-0.5222427
-0.5383031
-0.5542869
-0.5701899
-0.5859957
-0.6016751
-0.6171842
-0.6324612
-0.6474239
-0.6619647
-0.6759454
-0.6891951
-0.7015126
-0.7126822
-0.7225012
-0.7308121
-0.7375249
-0.7426168
-0.746113
-0.7480615
-0.7485144
-0.7475198
-0.7451203
-0.7413554
-0.7362635
-0.7298831
-0.7222532
-0.7134117
-0.7033924
-0.692219
-0.6798961
-0.6663956
-0.6516102
-0.6354151
-0.61795
-0.5997017
-0.5811919
-0.563145
-0.5455023
-0.5311649
-0.5126895
-0.5173129
-0.4555875
-0.6061466
)
;
    }
    wall
    {
        type            zeroGradient;
    }
    frontAndBack
    {
        type            empty;
    }
    middle
    {
        type            symmetryPlane;
        value           nonuniform List<scalar> 2(-0.5311466 -0.5811466);
    }
}


// ************************************************************************* //
