/*--------------------------------*- C++ -*----------------------------------*\
| =========                 |                                                 |
| \\      /  F ield         | foam-extend: Open Source CFD                    |
|  \\    /   O peration     | Version:     4.0                                |
|   \\  /    A nd           | Web:         http://www.foam-extend.org         |
|    \\/     M anipulation  |                                                 |
\*---------------------------------------------------------------------------*/
FoamFile
{
    version     2.0;
    format      ascii;
    class       surfaceScalarField;
    location    "100";
    object      phi;
}
// * * * * * * * * * * * * * * * * * * * * * * * * * * * * * * * * * * * * * //

dimensions      [0 3 -1 0 0 0 0];

internalField   nonuniform List<scalar> 
223
(
4.738685e-05
3.517297e-12
8.875088e-16
0.0001518014
3.593874e-12
-4.420997e-14
0.0002718593
3.604579e-12
-2.113443e-13
0.0004088814
3.514374e-12
-4.738778e-13
0.0005638829
3.395786e-12
-7.622116e-13
0.0007376207
3.343915e-12
-9.774761e-13
0.0009307829
3.455802e-12
-1.013158e-12
0.001142622
3.725237e-12
-8.623656e-13
0.0013712
4.062689e-12
-6.004477e-13
0.001615263
4.404341e-12
-2.796473e-13
0.001873913
4.708687e-12
6.66431e-14
0.002146429
4.931807e-12
3.999088e-13
0.002432287
5.043455e-12
6.926653e-13
0.002731175
5.031255e-12
9.326623e-13
0.003043003
4.898368e-12
1.119383e-12
0.0033679
4.65763e-12
1.259358e-12
0.003706202
4.32602e-12
1.364005e-12
0.004058444
3.922838e-12
1.447021e-12
0.00442534
3.467651e-12
1.521469e-12
0.004807769
2.978382e-12
1.599149e-12
0.005206759
2.470951e-12
1.691497e-12
0.005623467
1.960574e-12
1.807054e-12
0.006059168
1.463773e-12
1.947178e-12
0.00651524
9.968826e-13
2.113196e-12
0.006993158
5.693079e-13
2.314795e-12
0.007494486
1.834732e-13
2.561707e-12
0.008020872
-1.505302e-13
2.84487e-12
0.008574052
-3.950166e-13
3.120891e-12
0.009155852
-5.186145e-13
3.349063e-12
0.009768189
-5.539141e-13
3.545642e-12
0.01041308
-5.445728e-13
3.737996e-12
0.01109266
-5.014161e-13
3.920786e-12
0.01180915
-4.375467e-13
4.08977e-12
0.01256491
-3.375341e-13
4.216032e-12
0.01336244
-1.750391e-13
4.262745e-12
0.01420435
8.948378e-15
4.26524e-12
0.01509342
2.139576e-13
4.222918e-12
0.01603256
5.040647e-13
4.076714e-12
0.01702486
8.81683e-13
3.83189e-12
0.01807357
1.332534e-12
3.513515e-12
0.0191821
1.836532e-12
3.156363e-12
0.02035405
2.382656e-12
2.787833e-12
0.02159318
3.023774e-12
2.375853e-12
0.02290339
3.732892e-12
1.965306e-12
0.02428878
4.339433e-12
1.734052e-12
0.02575359
4.740189e-12
1.775286e-12
0.02730223
4.94689e-12
2.04285e-12
0.02893931
4.999048e-12
2.441981e-12
0.03066966
4.927401e-12
2.883624e-12
0.03249836
4.753904e-12
3.311455e-12
0.03443075
4.540552e-12
3.667218e-12
0.03647244
4.331916e-12
3.93151e-12
0.03862931
4.137459e-12
4.104439e-12
0.0409075
3.943851e-12
4.164035e-12
0.04331339
3.71866e-12
4.061923e-12
0.04585362
3.409508e-12
3.753579e-12
0.04853503
2.963202e-12
3.224089e-12
0.05136469
2.346884e-12
2.506841e-12
0.05434981
1.571126e-12
1.678081e-12
0.05749776
7.246045e-13
8.099436e-13
0.06081603
-7.828679e-14
-1.586676e-14
0.06431216
-7.505694e-13
-7.078735e-13
0.06799374
-1.235408e-12
-1.201512e-12
0.07186837
-1.510069e-12
-1.475801e-12
0.07594365
-1.576292e-12
-1.583758e-12
0.08022705
-1.517009e-12
-1.610497e-12
0.08472559
-1.469726e-12
-1.637226e-12
0.08944557
-1.489063e-12
-1.705141e-12
0.09439248
-1.442576e-12
-1.632586e-12
0.09957098
-9.125737e-13
-1.024032e-12
0.1049848
3.922134e-13
4.66085e-13
0.1106366
2.029833e-12
1.362343e-12
0.116528
-3.687935e-13
-3.821628e-13
0.1226587
-5.293408e-13
-3.396777e-13
0.1290255
)
;

boundaryField
{
    leftandright
    {
        type            cyclic;
        value           nonuniform List<scalar> 
150
(
-4.738685e-05
-0.0001518014
-0.0002718593
-0.0004088814
-0.0005638829
-0.0007376207
-0.0009307829
-0.001142622
-0.0013712
-0.001615263
-0.001873913
-0.002146429
-0.002432287
-0.002731175
-0.003043003
-0.0033679
-0.003706202
-0.004058444
-0.00442534
-0.004807769
-0.005206759
-0.005623467
-0.006059168
-0.00651524
-0.006993158
-0.007494486
-0.008020872
-0.008574052
-0.009155852
-0.009768189
-0.01041308
-0.01109266
-0.01180915
-0.01256491
-0.01336244
-0.01420435
-0.01509342
-0.01603256
-0.01702486
-0.01807357
-0.0191821
-0.02035405
-0.02159318
-0.02290339
-0.02428878
-0.02575359
-0.02730223
-0.02893931
-0.03066966
-0.03249836
-0.03443075
-0.03647244
-0.03862931
-0.0409075
-0.04331339
-0.04585362
-0.04853503
-0.05136469
-0.05434981
-0.05749776
-0.06081603
-0.06431216
-0.06799374
-0.07186837
-0.07594365
-0.08022705
-0.08472559
-0.08944557
-0.09439248
-0.09957098
-0.1049848
-0.1106366
-0.116528
-0.1226587
-0.1290255
4.738685e-05
0.0001518014
0.0002718593
0.0004088814
0.0005638829
0.0007376207
0.0009307829
0.001142622
0.0013712
0.001615263
0.001873913
0.002146429
0.002432287
0.002731175
0.003043003
0.0033679
0.003706202
0.004058444
0.00442534
0.004807769
0.005206759
0.005623467
0.006059168
0.00651524
0.006993158
0.007494486
0.008020872
0.008574052
0.009155852
0.009768189
0.01041308
0.01109266
0.01180915
0.01256491
0.01336244
0.01420435
0.01509342
0.01603256
0.01702486
0.01807357
0.0191821
0.02035405
0.02159318
0.02290339
0.02428878
0.02575359
0.02730223
0.02893931
0.03066966
0.03249836
0.03443075
0.03647244
0.03862931
0.0409075
0.04331339
0.04585362
0.04853503
0.05136469
0.05434981
0.05749776
0.06081603
0.06431216
0.06799374
0.07186837
0.07594365
0.08022705
0.08472559
0.08944557
0.09439248
0.09957098
0.1049848
0.1106366
0.116528
0.1226587
0.1290255
)
;
    }
    wall
    {
        type            calculated;
        value           uniform 0;
    }
    frontAndBack
    {
        type            empty;
    }
    middle
    {
        type            symmetryPlane;
        value           uniform 0;
    }
}


// ************************************************************************* //
