/*--------------------------------*- C++ -*----------------------------------*\
| =========                 |                                                 |
| \\      /  F ield         | foam-extend: Open Source CFD                    |
|  \\    /   O peration     | Version:     4.0                                |
|   \\  /    A nd           | Web:         http://www.foam-extend.org         |
|    \\/     M anipulation  |                                                 |
\*---------------------------------------------------------------------------*/
FoamFile
{
    version     2.0;
    format      ascii;
    class       volScalarField;
    location    "100";
    object      QR;
}
// * * * * * * * * * * * * * * * * * * * * * * * * * * * * * * * * * * * * * //

dimensions      [0 0 -1 0 0 0 0];

internalField   nonuniform List<scalar> 
150
(
610.6172
610.6173
609.0589
609.0589
605.6961
605.6961
599.093
599.093
588.2924
588.2924
573.332
573.332
552.5623
552.5623
523.404
523.404
487.6567
487.6566
449.0807
449.0807
409.7557
409.7556
370.9984
370.9984
333.778
333.778
298.7646
298.7646
266.3764
266.3764
236.8279
236.8279
210.1752
210.1752
186.358
186.3579
165.2344
165.2344
146.6111
146.6111
130.2656
130.2656
115.9647
115.9647
103.4772
103.4772
92.58259
92.58259
83.07666
83.07666
74.77512
74.77512
67.51479
67.5148
61.15317
61.15318
55.56688
55.56688
50.64966
50.64966
46.31032
46.31032
42.47072
42.47073
39.06395
39.06395
36.03265
36.03265
33.32759
33.3276
30.90645
30.90646
28.73268
28.73268
26.77456
26.77456
25.00442
25.00442
23.3979
23.3979
21.93337
21.93337
20.59145
20.59145
19.35475
19.35475
18.20785
18.20785
17.13757
17.13757
16.13328
16.13328
15.18716
15.18716
14.29382
14.29382
13.44964
13.44964
12.65183
12.65183
11.89774
11.89774
11.18454
11.18454
10.50913
10.50913
9.868281
9.868282
9.2587
9.2587
8.67717
8.67717
8.120608
8.120608
7.586123
7.586123
7.071065
7.071065
6.573074
6.573074
6.090141
6.090141
5.620677
5.620677
5.163589
5.163589
4.71836
4.71836
4.284342
4.284342
3.859442
3.859441
3.440504
3.440504
3.025022
3.025022
2.61188
2.61188
2.201234
2.201234
1.79415
1.79415
1.391932
1.391932
0.9960562
0.9960562
0.6072787
0.607278
0.2078684
0.2078678
)
;

boundaryField
{
    leftandright
    {
        type            cyclic;
        value           nonuniform List<scalar> 
150
(
610.6172
609.0589
605.6961
599.093
588.2924
573.332
552.5623
523.404
487.6567
449.0807
409.7557
370.9984
333.778
298.7646
266.3764
236.8279
210.1752
186.3579
165.2344
146.6111
130.2656
115.9647
103.4772
92.58259
83.07666
74.77512
67.5148
61.15317
55.56688
50.64966
46.31032
42.47073
39.06395
36.03265
33.3276
30.90646
28.73268
26.77456
25.00442
23.3979
21.93337
20.59145
19.35475
18.20785
17.13757
16.13328
15.18716
14.29382
13.44964
12.65183
11.89774
11.18454
10.50913
9.868282
9.2587
8.67717
8.120608
7.586123
7.071065
6.573074
6.090141
5.620677
5.163589
4.71836
4.284342
3.859441
3.440504
3.025022
2.61188
2.201234
1.79415
1.391932
0.9960562
0.6072784
0.2078681
610.6172
609.0589
605.6961
599.093
588.2924
573.332
552.5623
523.404
487.6567
449.0807
409.7557
370.9984
333.778
298.7646
266.3764
236.8279
210.1752
186.3579
165.2344
146.6111
130.2656
115.9647
103.4772
92.58259
83.07666
74.77512
67.5148
61.15317
55.56688
50.64966
46.31032
42.47073
39.06395
36.03265
33.3276
30.90646
28.73268
26.77456
25.00442
23.3979
21.93337
20.59145
19.35475
18.20785
17.13757
16.13328
15.18716
14.29382
13.44964
12.65183
11.89774
11.18454
10.50913
9.868282
9.2587
8.67717
8.120608
7.586123
7.071065
6.573074
6.090141
5.620677
5.163589
4.71836
4.284342
3.859441
3.440504
3.025022
2.61188
2.201234
1.79415
1.391932
0.9960562
0.6072784
0.2078681
)
;
    }
    wall
    {
        type            calculated;
        value           nonuniform List<scalar> 2(611.1297 611.1297);
    }
    frontAndBack
    {
        type            empty;
    }
    middle
    {
        type            symmetryPlane;
        value           nonuniform List<scalar> 2(0.4757427 0.4757427);
    }
}


// ************************************************************************* //
