/*--------------------------------*- C++ -*----------------------------------*\
| =========                 |                                                 |
| \\      /  F ield         | foam-extend: Open Source CFD                    |
|  \\    /   O peration     | Version:     4.0                                |
|   \\  /    A nd           | Web:         http://www.foam-extend.org         |
|    \\/     M anipulation  |                                                 |
\*---------------------------------------------------------------------------*/
FoamFile
{
    version     2.0;
    format      ascii;
    class       volSymmTensorField;
    location    "100";
    object      RStress;
}
// * * * * * * * * * * * * * * * * * * * * * * * * * * * * * * * * * * * * * //

dimensions      [0 2 -2 0 0 0 0];

internalField   nonuniform List<symmTensor> 
150
(
(0.02340659 -1.210517e-05 0 3.34715e-06 0 0.0004566432)
(0.02340659 -1.210517e-05 0 3.34715e-06 0 0.0004566434)
(0.2429238 -0.0006171822 0 0.0001567216 0 0.005288328)
(0.2429238 -0.0006171823 0 0.0001567217 0 0.005288329)
(0.6244241 -0.003728954 0 0.0008896821 0 0.0201053)
(0.6244241 -0.003728955 0 0.0008896823 0 0.02010531)
(1.159618 -0.01182782 0 0.002738048 0 0.04787718)
(1.159618 -0.01182782 0 0.002738048 0 0.04787719)
(1.837031 -0.02652994 0 0.006189477 0 0.09030829)
(1.837031 -0.02652995 0 0.006189478 0 0.09030831)
(2.63883 -0.04760787 0 0.01160954 0 0.1478354)
(2.63883 -0.04760788 0 0.01160954 0 0.1478354)
(3.541882 -0.07300406 0 0.01923308 0 0.2199436)
(3.541882 -0.07300407 0 0.01923309 0 0.2199436)
(4.514267 -0.1166009 0 0.02910967 0 0.3048778)
(4.514268 -0.1166009 0 0.02910967 0 0.3048779)
(5.495422 -0.1688406 0 0.04111919 0 0.3990787)
(5.495422 -0.1688407 0 0.0411192 0 0.3990788)
(6.428316 -0.2239369 0 0.05509312 0 0.4987598)
(6.428316 -0.2239369 0 0.05509313 0 0.4987599)
(7.268529 -0.2792801 0 0.0708196 0 0.6003041)
(7.268529 -0.2792801 0 0.07081961 0 0.6003041)
(7.986003 -0.3328591 0 0.08805171 0 0.7004695)
(7.986004 -0.3328592 0 0.08805173 0 0.7004696)
(8.565197 -0.3832387 0 0.1065272 0 0.7966009)
(8.565197 -0.3832388 0 0.1065272 0 0.7966009)
(9.003152 -0.4294808 0 0.1259863 0 0.8867244)
(9.003152 -0.4294809 0 0.1259863 0 0.8867244)
(9.306513 -0.4710717 0 0.1461857 0 0.9695448)
(9.306514 -0.4710717 0 0.1461857 0 0.9695449)
(9.488332 -0.5078453 0 0.1669075 0 1.044373)
(9.488332 -0.5078454 0 0.1669076 0 1.044373)
(9.565183 -0.5399049 0 0.1879637 0 1.111017)
(9.565183 -0.539905 0 0.1879637 0 1.111017)
(9.554871 -0.5675471 0 0.2091959 0 1.169657)
(9.554871 -0.5675472 0 0.2091959 0 1.169657)
(9.474795 -0.5911938 0 0.2304734 0 1.220735)
(9.474795 -0.5911938 0 0.2304734 0 1.220735)
(9.340908 -0.6113326 0 0.2516903 0 1.264848)
(9.340908 -0.6113326 0 0.2516903 0 1.264848)
(9.167163 -0.6284705 0 0.2727616 0 1.302679)
(9.167163 -0.6284706 0 0.2727616 0 1.302679)
(8.965315 -0.6430987 0 0.2936201 0 1.334928)
(8.965315 -0.6430987 0 0.2936201 0 1.334928)
(8.744962 -0.6556687 0 0.3142141 0 1.362285)
(8.744962 -0.6556688 0 0.3142141 0 1.362285)
(8.513728 -0.6665789 0 0.3345058 0 1.385395)
(8.513728 -0.666579 0 0.3345059 0 1.385396)
(8.277509 -0.6761699 0 0.3544708 0 1.404856)
(8.277509 -0.67617 0 0.3544708 0 1.404856)
(8.040757 -0.6847226 0 0.3740937 0 1.421201)
(8.040757 -0.6847227 0 0.3740937 0 1.421201)
(7.80675 -0.6924593 0 0.3933638 0 1.434896)
(7.80675 -0.6924594 0 0.3933639 0 1.434896)
(7.577828 -0.6995508 0 0.4122711 0 1.446335)
(7.577828 -0.6995509 0 0.4122711 0 1.446335)
(7.355594 -0.7061232 0 0.430804 0 1.455851)
(7.355594 -0.7061233 0 0.4308041 0 1.455851)
(7.141074 -0.7122648 0 0.4489486 0 1.463716)
(7.141075 -0.7122649 0 0.4489486 0 1.463716)
(6.934849 -0.718033 0 0.4666874 0 1.470149)
(6.93485 -0.7180331 0 0.4666874 0 1.470149)
(6.737156 -0.723459 0 0.4839995 0 1.475323)
(6.737156 -0.7234591 0 0.4839996 0 1.475323)
(6.547968 -0.7285535 0 0.5008603 0 1.479368)
(6.547968 -0.7285535 0 0.5008603 0 1.479369)
(6.367056 -0.7333094 0 0.5172411 0 1.48238)
(6.367056 -0.7333095 0 0.5172411 0 1.48238)
(6.194035 -0.7377056 0 0.5331096 0 1.484417)
(6.194035 -0.7377057 0 0.5331096 0 1.484417)
(6.028399 -0.7417085 0 0.5484294 0 1.485512)
(6.028399 -0.7417086 0 0.5484294 0 1.485512)
(5.869545 -0.7452733 0 0.5631605 0 1.485668)
(5.869546 -0.7452734 0 0.5631605 0 1.485668)
(5.716795 -0.7483436 0 0.5772587 0 1.484862)
(5.716795 -0.7483437 0 0.5772588 0 1.484862)
(5.569405 -0.75085 0 0.5906762 0 1.483049)
(5.569405 -0.7508501 0 0.5906762 0 1.483049)
(5.426583 -0.7527073 0 0.603361 0 1.48016)
(5.426583 -0.7527074 0 0.603361 0 1.48016)
(5.287498 -0.7538103 0 0.6152574 0 1.476109)
(5.287498 -0.7538103 0 0.6152574 0 1.476109)
(5.151295 -0.7540302 0 0.6263064 0 1.470789)
(5.151295 -0.7540302 0 0.6263064 0 1.470789)
(5.01712 -0.7532146 0 0.6364464 0 1.464084)
(5.01712 -0.7532147 0 0.6364464 0 1.464084)
(4.884143 -0.7511961 0 0.6456149 0 1.455869)
(4.884143 -0.7511961 0 0.6456149 0 1.455869)
(4.751599 -0.7478129 0 0.6537509 0 1.44602)
(4.751599 -0.7478129 0 0.6537509 0 1.44602)
(4.618822 -0.7429398 0 0.6607967 0 1.434425)
(4.618822 -0.7429398 0 0.6607967 0 1.434425)
(4.485285 -0.7365169 0 0.666699 0 1.420991)
(4.485285 -0.7365169 0 0.666699 0 1.420991)
(4.350608 -0.7285605 0 0.6714106 0 1.405651)
(4.350608 -0.7285606 0 0.6714106 0 1.405651)
(4.214564 -0.7191484 0 0.6748925 0 1.388367)
(4.214564 -0.7191484 0 0.6748925 0 1.388367)
(4.077052 -0.7083882 0 0.677115 0 1.369126)
(4.077052 -0.7083882 0 0.677115 0 1.369126)
(3.938069 -0.6963857 0 0.6780587 0 1.347939)
(3.938069 -0.6963857 0 0.6780587 0 1.347939)
(3.797685 -0.6832252 0 0.6777132 0 1.324835)
(3.797685 -0.6832252 0 0.6777132 0 1.324835)
(3.656018 -0.6689632 0 0.676076 0 1.299859)
(3.656018 -0.6689632 0 0.6760759 0 1.299859)
(3.513223 -0.6536308 0 0.6731516 0 1.273065)
(3.513223 -0.6536308 0 0.6731516 0 1.273065)
(3.369487 -0.6372383 0 0.6689516 0 1.244521)
(3.369487 -0.6372383 0 0.6689516 0 1.244521)
(3.225031 -0.6197806 0 0.663494 0 1.214306)
(3.225031 -0.6197806 0 0.6634939 0 1.214306)
(3.080119 -0.6012407 0 0.6568022 0 1.182508)
(3.080119 -0.6012407 0 0.6568022 0 1.182508)
(2.935066 -0.5815928 0 0.6489043 0 1.149231)
(2.935066 -0.5815927 0 0.6489043 0 1.149231)
(2.790259 -0.5608037 0 0.6398298 0 1.114592)
(2.790259 -0.5608037 0 0.6398298 0 1.114592)
(2.646172 -0.5388345 0 0.6296062 0 1.078722)
(2.646172 -0.5388345 0 0.6296061 0 1.078722)
(2.503387 -0.5156411 0 0.6182522 0 1.041767)
(2.503387 -0.5156411 0 0.6182521 0 1.041767)
(2.362621 -0.4911746 0 0.6057699 0 1.003885)
(2.362621 -0.4911746 0 0.6057698 0 1.003885)
(2.224751 -0.4653816 0 0.59212 0 0.9652396)
(2.224751 -0.4653816 0 0.5921199 0 0.9652396)
(2.090837 -0.4382044 0 0.5772134 0 0.9259919)
(2.090837 -0.4382044 0 0.5772134 0 0.9259919)
(1.962156 -0.4095061 0 0.5609007 0 0.8862822)
(1.962156 -0.409506 0 0.5609007 0 0.8862822)
(1.839604 -0.3792249 0 0.5433301 0 0.8464708)
(1.839604 -0.3792249 0 0.5433301 0 0.8464708)
(1.723718 -0.3473652 0 0.5249792 0 0.807174)
(1.723718 -0.3473652 0 0.5249791 0 0.807174)
(1.615285 -0.3138554 0 0.5064502 0 0.7690651)
(1.615285 -0.3138553 0 0.5064502 0 0.769065)
(1.515316 -0.2786161 0 0.488095 0 0.7328742)
(1.515316 -0.2786161 0 0.4880949 0 0.7328742)
(1.425017 -0.2415559 0 0.4712241 0 0.6993791)
(1.425017 -0.2415558 0 0.471224 0 0.6993791)
(1.345732 -0.2025676 0 0.454027 0 0.6693852)
(1.345732 -0.2025676 0 0.454027 0 0.6693852)
(1.2789 -0.1615247 0 0.444667 0 0.6437058)
(1.2789 -0.1615247 0 0.444667 0 0.6437058)
(1.226025 -0.1182865 0 0.4203766 0 0.6231466)
(1.226025 -0.1182865 0 0.4203766 0 0.6231466)
(1.188742 -0.0727099 0 0.438866 0 0.6085263)
(1.188742 -0.07270982 0 0.438866 0 0.6085263)
(1.168884 -0.02466372 0 0.4088557 0 0.6006989)
(1.168884 -0.02466364 0 0.4088556 0 0.6006989)
)
;

boundaryField
{
    leftandright
    {
        type            cyclic;
        value           nonuniform List<symmTensor> 
150
(
(0.02340659 -1.210517e-05 0 3.34715e-06 0 0.0004566433)
(0.2429238 -0.0006171822 0 0.0001567217 0 0.005288329)
(0.6244241 -0.003728954 0 0.0008896822 0 0.02010531)
(1.159618 -0.01182782 0 0.002738048 0 0.04787718)
(1.837031 -0.02652994 0 0.006189478 0 0.0903083)
(2.63883 -0.04760788 0 0.01160954 0 0.1478354)
(3.541882 -0.07300407 0 0.01923308 0 0.2199436)
(4.514268 -0.1166009 0 0.02910967 0 0.3048779)
(5.495422 -0.1688407 0 0.0411192 0 0.3990788)
(6.428316 -0.2239369 0 0.05509312 0 0.4987599)
(7.268529 -0.2792801 0 0.0708196 0 0.6003041)
(7.986003 -0.3328592 0 0.08805172 0 0.7004696)
(8.565197 -0.3832387 0 0.1065272 0 0.7966009)
(9.003152 -0.4294808 0 0.1259863 0 0.8867244)
(9.306514 -0.4710717 0 0.1461857 0 0.9695448)
(9.488332 -0.5078453 0 0.1669076 0 1.044373)
(9.565183 -0.5399049 0 0.1879637 0 1.111017)
(9.554871 -0.5675472 0 0.2091959 0 1.169657)
(9.474795 -0.5911938 0 0.2304734 0 1.220735)
(9.340908 -0.6113326 0 0.2516903 0 1.264848)
(9.167163 -0.6284705 0 0.2727616 0 1.302679)
(8.965315 -0.6430987 0 0.2936201 0 1.334928)
(8.744962 -0.6556687 0 0.3142141 0 1.362285)
(8.513728 -0.666579 0 0.3345059 0 1.385396)
(8.277509 -0.67617 0 0.3544708 0 1.404856)
(8.040757 -0.6847226 0 0.3740937 0 1.421201)
(7.80675 -0.6924594 0 0.3933638 0 1.434896)
(7.577828 -0.6995509 0 0.4122711 0 1.446335)
(7.355594 -0.7061232 0 0.4308041 0 1.455851)
(7.141075 -0.7122649 0 0.4489486 0 1.463716)
(6.93485 -0.718033 0 0.4666874 0 1.470149)
(6.737156 -0.7234591 0 0.4839995 0 1.475323)
(6.547968 -0.7285535 0 0.5008603 0 1.479368)
(6.367056 -0.7333094 0 0.5172411 0 1.48238)
(6.194035 -0.7377056 0 0.5331096 0 1.484417)
(6.028399 -0.7417086 0 0.5484294 0 1.485512)
(5.869546 -0.7452734 0 0.5631605 0 1.485668)
(5.716795 -0.7483437 0 0.5772588 0 1.484862)
(5.569405 -0.7508501 0 0.5906762 0 1.483049)
(5.426583 -0.7527073 0 0.603361 0 1.48016)
(5.287498 -0.7538103 0 0.6152574 0 1.476109)
(5.151295 -0.7540302 0 0.6263064 0 1.470789)
(5.01712 -0.7532146 0 0.6364464 0 1.464084)
(4.884143 -0.7511961 0 0.6456149 0 1.455869)
(4.751599 -0.7478129 0 0.6537509 0 1.44602)
(4.618822 -0.7429398 0 0.6607967 0 1.434425)
(4.485285 -0.7365169 0 0.666699 0 1.420991)
(4.350608 -0.7285605 0 0.6714106 0 1.405651)
(4.214564 -0.7191484 0 0.6748925 0 1.388367)
(4.077052 -0.7083882 0 0.677115 0 1.369126)
(3.938069 -0.6963857 0 0.6780587 0 1.347939)
(3.797685 -0.6832252 0 0.6777132 0 1.324835)
(3.656018 -0.6689632 0 0.6760759 0 1.299859)
(3.513223 -0.6536308 0 0.6731516 0 1.273065)
(3.369487 -0.6372383 0 0.6689516 0 1.244521)
(3.225031 -0.6197806 0 0.663494 0 1.214306)
(3.080119 -0.6012407 0 0.6568022 0 1.182508)
(2.935066 -0.5815927 0 0.6489043 0 1.149231)
(2.790259 -0.5608037 0 0.6398298 0 1.114592)
(2.646172 -0.5388345 0 0.6296061 0 1.078722)
(2.503387 -0.5156411 0 0.6182522 0 1.041767)
(2.362621 -0.4911746 0 0.6057699 0 1.003885)
(2.224751 -0.4653816 0 0.59212 0 0.9652396)
(2.090837 -0.4382044 0 0.5772134 0 0.9259919)
(1.962156 -0.409506 0 0.5609007 0 0.8862822)
(1.839604 -0.3792249 0 0.5433301 0 0.8464708)
(1.723718 -0.3473652 0 0.5249791 0 0.807174)
(1.615285 -0.3138553 0 0.5064502 0 0.7690651)
(1.515316 -0.2786161 0 0.4880949 0 0.7328742)
(1.425017 -0.2415558 0 0.471224 0 0.6993791)
(1.345732 -0.2025676 0 0.454027 0 0.6693852)
(1.2789 -0.1615247 0 0.444667 0 0.6437058)
(1.226025 -0.1182865 0 0.4203766 0 0.6231466)
(1.188742 -0.07270986 0 0.438866 0 0.6085263)
(1.168884 -0.02466368 0 0.4088557 0 0.6006989)
(0.02340659 -1.210517e-05 0 3.34715e-06 0 0.0004566433)
(0.2429238 -0.0006171822 0 0.0001567217 0 0.005288329)
(0.6244241 -0.003728954 0 0.0008896822 0 0.02010531)
(1.159618 -0.01182782 0 0.002738048 0 0.04787718)
(1.837031 -0.02652994 0 0.006189478 0 0.0903083)
(2.63883 -0.04760788 0 0.01160954 0 0.1478354)
(3.541882 -0.07300407 0 0.01923308 0 0.2199436)
(4.514268 -0.1166009 0 0.02910967 0 0.3048779)
(5.495422 -0.1688407 0 0.0411192 0 0.3990788)
(6.428316 -0.2239369 0 0.05509312 0 0.4987599)
(7.268529 -0.2792801 0 0.0708196 0 0.6003041)
(7.986003 -0.3328592 0 0.08805172 0 0.7004696)
(8.565197 -0.3832387 0 0.1065272 0 0.7966009)
(9.003152 -0.4294808 0 0.1259863 0 0.8867244)
(9.306514 -0.4710717 0 0.1461857 0 0.9695448)
(9.488332 -0.5078453 0 0.1669076 0 1.044373)
(9.565183 -0.5399049 0 0.1879637 0 1.111017)
(9.554871 -0.5675472 0 0.2091959 0 1.169657)
(9.474795 -0.5911938 0 0.2304734 0 1.220735)
(9.340908 -0.6113326 0 0.2516903 0 1.264848)
(9.167163 -0.6284705 0 0.2727616 0 1.302679)
(8.965315 -0.6430987 0 0.2936201 0 1.334928)
(8.744962 -0.6556687 0 0.3142141 0 1.362285)
(8.513728 -0.666579 0 0.3345059 0 1.385396)
(8.277509 -0.67617 0 0.3544708 0 1.404856)
(8.040757 -0.6847226 0 0.3740937 0 1.421201)
(7.80675 -0.6924594 0 0.3933638 0 1.434896)
(7.577828 -0.6995509 0 0.4122711 0 1.446335)
(7.355594 -0.7061232 0 0.4308041 0 1.455851)
(7.141075 -0.7122649 0 0.4489486 0 1.463716)
(6.93485 -0.718033 0 0.4666874 0 1.470149)
(6.737156 -0.7234591 0 0.4839995 0 1.475323)
(6.547968 -0.7285535 0 0.5008603 0 1.479368)
(6.367056 -0.7333094 0 0.5172411 0 1.48238)
(6.194035 -0.7377056 0 0.5331096 0 1.484417)
(6.028399 -0.7417086 0 0.5484294 0 1.485512)
(5.869546 -0.7452734 0 0.5631605 0 1.485668)
(5.716795 -0.7483437 0 0.5772588 0 1.484862)
(5.569405 -0.7508501 0 0.5906762 0 1.483049)
(5.426583 -0.7527073 0 0.603361 0 1.48016)
(5.287498 -0.7538103 0 0.6152574 0 1.476109)
(5.151295 -0.7540302 0 0.6263064 0 1.470789)
(5.01712 -0.7532146 0 0.6364464 0 1.464084)
(4.884143 -0.7511961 0 0.6456149 0 1.455869)
(4.751599 -0.7478129 0 0.6537509 0 1.44602)
(4.618822 -0.7429398 0 0.6607967 0 1.434425)
(4.485285 -0.7365169 0 0.666699 0 1.420991)
(4.350608 -0.7285605 0 0.6714106 0 1.405651)
(4.214564 -0.7191484 0 0.6748925 0 1.388367)
(4.077052 -0.7083882 0 0.677115 0 1.369126)
(3.938069 -0.6963857 0 0.6780587 0 1.347939)
(3.797685 -0.6832252 0 0.6777132 0 1.324835)
(3.656018 -0.6689632 0 0.6760759 0 1.299859)
(3.513223 -0.6536308 0 0.6731516 0 1.273065)
(3.369487 -0.6372383 0 0.6689516 0 1.244521)
(3.225031 -0.6197806 0 0.663494 0 1.214306)
(3.080119 -0.6012407 0 0.6568022 0 1.182508)
(2.935066 -0.5815927 0 0.6489043 0 1.149231)
(2.790259 -0.5608037 0 0.6398298 0 1.114592)
(2.646172 -0.5388345 0 0.6296061 0 1.078722)
(2.503387 -0.5156411 0 0.6182522 0 1.041767)
(2.362621 -0.4911746 0 0.6057699 0 1.003885)
(2.224751 -0.4653816 0 0.59212 0 0.9652396)
(2.090837 -0.4382044 0 0.5772134 0 0.9259919)
(1.962156 -0.409506 0 0.5609007 0 0.8862822)
(1.839604 -0.3792249 0 0.5433301 0 0.8464708)
(1.723718 -0.3473652 0 0.5249791 0 0.807174)
(1.615285 -0.3138553 0 0.5064502 0 0.7690651)
(1.515316 -0.2786161 0 0.4880949 0 0.7328742)
(1.425017 -0.2415558 0 0.471224 0 0.6993791)
(1.345732 -0.2025676 0 0.454027 0 0.6693852)
(1.2789 -0.1615247 0 0.444667 0 0.6437058)
(1.226025 -0.1182865 0 0.4203766 0 0.6231466)
(1.188742 -0.07270986 0 0.438866 0 0.6085263)
(1.168884 -0.02466368 0 0.4088557 0 0.6006989)
)
;
    }
    wall
    {
        type            calculated;
        value           nonuniform List<symmTensor> 2((3.333333e-11 -3.427188e-10 0 9.997038e-11 0 6.666667e-11) (3.333333e-11 -3.427188e-10 0 9.997038e-11 0 6.666667e-11));
    }
    frontAndBack
    {
        type            empty;
    }
    middle
    {
        type            symmetryPlane;
        value           nonuniform List<symmTensor> 2((1.168884 0 0 0.5181936 0 0.6006989) (1.168884 0 0 0.5181935 0 0.6006989));
    }
}


// ************************************************************************* //
