/*--------------------------------*- C++ -*----------------------------------*\
| =========                 |                                                 |
| \\      /  F ield         | foam-extend: Open Source CFD                    |
|  \\    /   O peration     | Version:     4.0                                |
|   \\  /    A nd           | Web:         http://www.foam-extend.org         |
|    \\/     M anipulation  |                                                 |
\*---------------------------------------------------------------------------*/
FoamFile
{
    version     2.0;
    format      ascii;
    class       volSymmTensorField;
    location    "100";
    object      tauP;
}
// * * * * * * * * * * * * * * * * * * * * * * * * * * * * * * * * * * * * * //

dimensions      [0 2 -2 0 0 0 0];

internalField   nonuniform List<symmTensor> 
150
(
(4.267976 0.06590276 0 1.989967e-05 0 4.228584e-06)
(4.267973 0.06590265 0 1.989828e-05 0 4.228548e-06)
(4.261169 0.06592439 0 2.324017e-05 0 4.301368e-06)
(4.261167 0.06592428 0 2.323878e-05 0 4.301482e-06)
(4.246558 0.06600131 0 3.248599e-05 0 4.488586e-06)
(4.246557 0.0660012 0 3.248472e-05 0 4.488849e-06)
(4.2217 0.06617091 0 5.195154e-05 0 4.645094e-06)
(4.221699 0.06617082 0 5.195049e-05 0 4.645437e-06)
(4.184705 0.0664971 0 8.781023e-05 0 4.741844e-06)
(4.184705 0.06649703 0 8.780953e-05 0 4.742199e-06)
(4.134685 0.06708182 0 0.0001484604 0 4.927507e-06)
(4.134685 0.0670818 0 0.0001484602 0 4.927872e-06)
(4.067184 0.06799166 0 0.0002445408 0 4.780867e-06)
(4.067185 0.06799167 0 0.0002445412 0 4.78127e-06)
(3.977186 0.06926877 0 0.0003929196 0 3.615959e-06)
(3.977188 0.06926881 0 0.0003929207 0 3.616392e-06)
(3.868403 0.07101755 0 0.0006061619 0 1.688585e-06)
(3.868406 0.07101762 0 0.0006061638 0 1.689003e-06)
(3.752052 0.07340044 0 0.0008973054 0 1.776224e-08)
(3.752054 0.07340053 0 0.0008973082 0 1.811872e-08)
(3.636253 0.07651292 0 0.001281843 0 -9.446776e-07)
(3.636255 0.07651303 0 0.001281847 0 -9.443902e-07)
(3.524481 0.08037169 0 0.001777454 0 -1.255089e-06)
(3.524483 0.08037181 0 0.001777459 0 -1.254848e-06)
(3.417138 0.08493596 0 0.002403696 0 -1.139053e-06)
(3.41714 0.08493609 0 0.002403703 0 -1.138827e-06)
(3.312925 0.09011807 0 0.003181019 0 -8.212714e-07)
(3.312927 0.09011821 0 0.003181027 0 -8.210831e-07)
(3.209818 0.09578814 0 0.004129174 0 -4.663586e-07)
(3.20982 0.09578828 0 0.004129183 0 -4.662151e-07)
(3.105732 0.1017791 0 0.005265238 0 -1.720947e-07)
(3.105734 0.1017793 0 0.005265248 0 -1.719547e-07)
(2.998948 0.1078956 0 0.006601534 0 1.905952e-08)
(2.99895 0.1078957 0 0.006601545 0 1.908535e-08)
(2.888361 0.1139265 0 0.008143745 0 1.035963e-07)
(2.888361 0.1139266 0 0.008143757 0 1.03523e-07)
(2.773555 0.11966 0 0.009889492 0 1.014193e-07)
(2.773555 0.1196602 0 0.009889505 0 1.012266e-07)
(2.65475 0.124898 0 0.01182754 0 4.209275e-08)
(2.65475 0.1248981 0 0.01182756 0 4.195557e-08)
(2.532657 0.1294675 0 0.01393772 0 -4.445758e-08)
(2.532658 0.1294676 0 0.01393774 0 -4.459752e-08)
(2.408292 0.1332289 0 0.01619142 0 -1.343318e-07)
(2.408292 0.133229 0 0.01619143 0 -1.345969e-07)
(2.282794 0.1360789 0 0.01855265 0 -2.118611e-07)
(2.282794 0.136079 0 0.01855266 0 -2.120987e-07)
(2.157286 0.1379509 0 0.02097946 0 -2.690658e-07)
(2.157286 0.137951 0 0.02097947 0 -2.691611e-07)
(2.032773 0.1388126 0 0.02342558 0 -3.036237e-07)
(2.032774 0.1388127 0 0.02342559 0 -3.037783e-07)
(1.910093 0.1386608 0 0.02584178 0 -3.173468e-07)
(1.910094 0.1386608 0 0.0258418 0 -3.173303e-07)
(1.78989 0.1375156 0 0.0281769 0 -3.138148e-07)
(1.789891 0.1375157 0 0.02817692 0 -3.137105e-07)
(1.672626 0.1354156 0 0.03037886 0 -2.975692e-07)
(1.672627 0.1354157 0 0.03037888 0 -2.973756e-07)
(1.558599 0.1324133 0 0.0323958 0 -2.726715e-07)
(1.5586 0.1324134 0 0.03239583 0 -2.724079e-07)
(1.44797 0.1285713 0 0.03417716 0 -2.427094e-07)
(1.447971 0.1285714 0 0.0341772 0 -2.423791e-07)
(1.340795 0.1239596 0 0.03567475 0 -2.10734e-07)
(1.340796 0.1239597 0 0.03567479 0 -2.103183e-07)
(1.237049 0.1186528 0 0.03684383 0 -1.788429e-07)
(1.23705 0.1186529 0 0.03684386 0 -1.783462e-07)
(1.136658 0.1127285 0 0.03764416 0 -1.48652e-07)
(1.136659 0.1127286 0 0.0376442 0 -1.480665e-07)
(1.03952 0.106266 0 0.0380411 0 -1.211114e-07)
(1.039522 0.1062661 0 0.03804115 0 -1.204692e-07)
(0.9455304 0.09934562 0 0.03800667 0 -9.712597e-08)
(0.9455319 0.09934576 0 0.03800673 0 -9.638858e-08)
(0.8546005 0.09204853 0 0.03752071 0 -7.691116e-08)
(0.854602 0.09204867 0 0.03752077 0 -7.59884e-08)
(0.7666815 0.08445734 0 0.03657231 0 -6.0901e-08)
(0.766683 0.08445747 0 0.03657237 0 -6.010993e-08)
(0.6817894 0.07665759 0 0.03516151 0 -4.972696e-08)
(0.6817908 0.07665776 0 0.03516159 0 -4.891966e-08)
(0.6000361 0.06874065 0 0.03330191 0 -4.375095e-08)
(0.6000377 0.06874082 0 0.03330199 0 -4.30738e-08)
(0.5216678 0.06080747 0 0.03102397 0 -4.365124e-08)
(0.5216693 0.06080764 0 0.03102406 0 -4.284096e-08)
(0.4471098 0.05297407 0 0.02837973 0 -4.968381e-08)
(0.4471114 0.05297423 0 0.02837982 0 -4.902968e-08)
(0.377008 0.04537666 0 0.0254481 0 -6.148286e-08)
(0.3770094 0.04537683 0 0.0254482 0 -6.074931e-08)
(0.3122362 0.03817332 0 0.02233866 0 -7.69209e-08)
(0.3122377 0.03817348 0 0.02233876 0 -7.621538e-08)
(0.2538277 0.03153656 0 0.01918993 0 -9.185498e-08)
(0.2538288 0.03153671 0 0.01919003 0 -9.144599e-08)
(0.202784 0.02563127 0 0.0161565 0 -1.012583e-07)
(0.2027851 0.0256314 0 0.01615658 0 -1.009442e-07)
(0.1597853 0.02057968 0 0.01338334 0 -1.00662e-07)
(0.1597861 0.02057978 0 0.01338341 0 -1.00463e-07)
(0.124913 0.01642704 0 0.01097469 0 -8.995976e-08)
(0.1249135 0.01642711 0 0.01097473 0 -8.972529e-08)
(0.09756123 0.01312921 0 0.008973419 0 -7.25334e-08)
(0.09756161 0.01312925 0 0.008973454 0 -7.239801e-08)
(0.07660497 0.01057192 0 0.007363108 0 -5.3944e-08)
(0.0766052 0.01057195 0 0.007363131 0 -5.389641e-08)
(0.06071866 0.008609604 0 0.00608915 0 -3.755661e-08)
(0.0607188 0.008609619 0 0.006089163 0 -3.773306e-08)
(0.04866081 0.007101164 0 0.005084197 0 -2.554202e-08)
(0.0486609 0.007101174 0 0.005084206 0 -2.56017e-08)
(0.03942079 0.005929601 0 0.004285706 0 -1.697631e-08)
(0.03942085 0.005929607 0 0.004285711 0 -1.722188e-08)
(0.03224127 0.00500618 0 0.003643109 0 -1.133226e-08)
(0.0322413 0.005006184 0 0.003643113 0 -1.159018e-08)
(0.02657775 0.004266543 0 0.003118258 0 -7.690915e-09)
(0.02657777 0.004266545 0 0.00311826 0 -7.793328e-09)
(0.022044 0.003664709 0 0.002683177 0 -5.201502e-09)
(0.02204401 0.00366471 0 0.002683179 0 -5.459043e-09)
(0.01836535 0.003167752 0 0.002317464 0 -3.662481e-09)
(0.01836535 0.003167753 0 0.002317466 0 -3.760383e-09)
(0.01534441 0.002751845 0 0.002006151 0 -2.557689e-09)
(0.01534442 0.002751846 0 0.002006153 0 -2.816457e-09)
(0.01283739 0.00239951 0 0.00173814 0 -1.761579e-09)
(0.0128374 0.002399511 0 0.001738142 0 -2.028945e-09)
(0.0107381 0.002097737 0 0.001505101 0 -1.364095e-09)
(0.0107381 0.002097737 0 0.001505101 0 -1.484733e-09)
(0.008967092 0.001836722 0 0.001300706 0 -9.612723e-10)
(0.008967091 0.001836722 0 0.001300705 0 -1.098008e-09)
(0.007464213 0.001608992 0 0.001120108 0 -7.433995e-10)
(0.007464214 0.001608991 0 0.001120108 0 -8.901966e-10)
(0.006183442 0.001408799 0 0.0009595588 0 -4.52366e-10)
(0.006183444 0.001408799 0 0.0009595587 0 -5.943319e-10)
(0.005089454 0.001231739 0 0.0008162161 0 -3.370244e-10)
(0.005089454 0.001231739 0 0.0008162161 0 -6.122052e-10)
(0.004154529 0.001074376 0 0.0006878501 0 -2.803369e-10)
(0.004154531 0.001074376 0 0.0006878501 0 -3.3089e-10)
(0.00335489 0.0009337406 0 0.0005723711 0 -2.462567e-10)
(0.003354892 0.0009337408 0 0.0005723713 0 -2.04974e-10)
(0.002671459 0.0008072877 0 0.0004686375 0 -4.099772e-10)
(0.002671461 0.0008072882 0 0.0004686391 0 -9.048171e-11)
(0.002089045 0.0006927716 0 0.0003762126 0 -8.975087e-10)
(0.002089047 0.000692772 0 0.000376213 0 -2.760123e-10)
(0.001593957 0.0005881198 0 0.0002941748 0 -1.390793e-09)
(0.00159396 0.0005881204 0 0.0002941765 0 -5.724136e-10)
(0.001178887 0.0004920965 0 0.0002229815 0 -1.599551e-09)
(0.001178888 0.0004920968 0 0.0002229819 0 -4.554532e-10)
(0.0008295906 0.0004028756 0 0.0001596137 0 -1.335176e-09)
(0.0008295901 0.0004028756 0 0.000159615 0 -4.567447e-10)
(0.0005613992 0.0003213871 0 0.0001126226 0 1.207221e-10)
(0.0005613961 0.0003213866 0 0.0001126223 0 4.696734e-10)
(0.0003081772 0.0002422892 0 5.601905e-05 0 2.784787e-09)
(0.0003081746 0.0002422882 0 5.601855e-05 0 1.436259e-09)
(0.0002442354 0.0001747678 0 6.692569e-05 0 1.128268e-09)
(0.0002442352 0.0001747678 0 6.692326e-05 0 -3.017397e-09)
(-5.158977e-05 9.91734e-05 0 -3.775221e-05 0 -4.683072e-10)
(-5.159043e-05 9.917385e-05 0 -3.775211e-05 0 4.897591e-10)
(7.126033e-05 3.469719e-05 0 3.003825e-05 0 1.056891e-09)
(7.125745e-05 3.469674e-05 0 3.003738e-05 0 -9.042191e-10)
)
;

boundaryField
{
    leftandright
    {
        type            cyclic;
        value           nonuniform List<symmTensor> 
150
(
(4.267974 0.0659027 0 1.989897e-05 0 4.228566e-06)
(4.261168 0.06592434 0 2.323947e-05 0 4.301425e-06)
(4.246558 0.06600126 0 3.248535e-05 0 4.488718e-06)
(4.2217 0.06617086 0 5.195102e-05 0 4.645266e-06)
(4.184705 0.06649706 0 8.780988e-05 0 4.742021e-06)
(4.134685 0.06708181 0 0.0001484603 0 4.92769e-06)
(4.067184 0.06799167 0 0.000244541 0 4.781069e-06)
(3.977187 0.06926879 0 0.0003929201 0 3.616175e-06)
(3.868404 0.07101758 0 0.0006061628 0 1.688794e-06)
(3.752053 0.07340049 0 0.0008973068 0 1.794048e-08)
(3.636254 0.07651297 0 0.001281845 0 -9.445339e-07)
(3.524482 0.08037175 0 0.001777457 0 -1.254968e-06)
(3.417139 0.08493603 0 0.0024037 0 -1.13894e-06)
(3.312926 0.09011814 0 0.003181023 0 -8.211772e-07)
(3.209819 0.09578821 0 0.004129178 0 -4.662869e-07)
(3.105733 0.1017792 0 0.005265243 0 -1.720247e-07)
(2.998949 0.1078957 0 0.006601539 0 1.907244e-08)
(2.888361 0.1139266 0 0.008143751 0 1.035596e-07)
(2.773555 0.1196601 0 0.009889498 0 1.01323e-07)
(2.65475 0.124898 0 0.01182755 0 4.202416e-08)
(2.532658 0.1294676 0 0.01393773 0 -4.452755e-08)
(2.408292 0.1332289 0 0.01619143 0 -1.344644e-07)
(2.282794 0.1360789 0 0.01855266 0 -2.119799e-07)
(2.157286 0.137951 0 0.02097947 0 -2.691135e-07)
(2.032773 0.1388127 0 0.02342559 0 -3.03701e-07)
(1.910093 0.1386608 0 0.02584179 0 -3.173386e-07)
(1.789891 0.1375156 0 0.02817691 0 -3.137627e-07)
(1.672627 0.1354157 0 0.03037887 0 -2.974724e-07)
(1.5586 0.1324133 0 0.03239581 0 -2.725397e-07)
(1.447971 0.1285714 0 0.03417718 0 -2.425443e-07)
(1.340795 0.1239597 0 0.03567477 0 -2.105261e-07)
(1.237049 0.1186529 0 0.03684384 0 -1.785946e-07)
(1.136658 0.1127286 0 0.03764418 0 -1.483593e-07)
(1.039521 0.1062661 0 0.03804113 0 -1.207903e-07)
(0.9455311 0.09934569 0 0.0380067 0 -9.675727e-08)
(0.8546013 0.0920486 0 0.03752074 0 -7.644978e-08)
(0.7666822 0.0844574 0 0.03657234 0 -6.050546e-08)
(0.6817901 0.07665768 0 0.03516155 0 -4.932331e-08)
(0.6000369 0.06874073 0 0.03330195 0 -4.341238e-08)
(0.5216685 0.06080756 0 0.03102401 0 -4.32461e-08)
(0.4471106 0.05297415 0 0.02837978 0 -4.935674e-08)
(0.3770087 0.04537675 0 0.02544815 0 -6.111609e-08)
(0.312237 0.0381734 0 0.02233871 0 -7.656814e-08)
(0.2538283 0.03153664 0 0.01918998 0 -9.165048e-08)
(0.2027845 0.02563133 0 0.01615654 0 -1.011013e-07)
(0.1597857 0.02057973 0 0.01338338 0 -1.005625e-07)
(0.1249133 0.01642708 0 0.01097471 0 -8.984252e-08)
(0.09756142 0.01312923 0 0.008973436 0 -7.24657e-08)
(0.07660509 0.01057194 0 0.00736312 0 -5.392021e-08)
(0.06071873 0.008609611 0 0.006089157 0 -3.764483e-08)
(0.04866086 0.007101169 0 0.005084202 0 -2.557186e-08)
(0.03942082 0.005929604 0 0.004285708 0 -1.70991e-08)
(0.03224129 0.005006182 0 0.003643111 0 -1.146122e-08)
(0.02657776 0.004266544 0 0.003118259 0 -7.742122e-09)
(0.02204401 0.00366471 0 0.002683178 0 -5.330272e-09)
(0.01836535 0.003167752 0 0.002317465 0 -3.711432e-09)
(0.01534442 0.002751846 0 0.002006152 0 -2.687073e-09)
(0.0128374 0.00239951 0 0.001738141 0 -1.895262e-09)
(0.0107381 0.002097737 0 0.001505101 0 -1.424414e-09)
(0.008967092 0.001836722 0 0.001300705 0 -1.02964e-09)
(0.007464214 0.001608992 0 0.001120108 0 -8.167981e-10)
(0.006183443 0.001408799 0 0.0009595587 0 -5.233489e-10)
(0.005089454 0.001231739 0 0.0008162161 0 -4.746148e-10)
(0.00415453 0.001074376 0 0.0006878501 0 -3.056135e-10)
(0.003354891 0.0009337407 0 0.0005723712 0 -2.256154e-10)
(0.00267146 0.0008072879 0 0.0004686383 0 -2.502295e-10)
(0.002089046 0.0006927718 0 0.0003762128 0 -5.867605e-10)
(0.001593959 0.0005881201 0 0.0002941757 0 -9.816033e-10)
(0.001178887 0.0004920966 0 0.0002229817 0 -1.027502e-09)
(0.0008295904 0.0004028756 0 0.0001596144 0 -8.959606e-10)
(0.0005613976 0.0003213869 0 0.0001126224 0 2.951978e-10)
(0.0003081759 0.0002422887 0 5.60188e-05 0 2.110523e-09)
(0.0002442353 0.0001747678 0 6.692447e-05 0 -9.445647e-10)
(-5.15901e-05 9.917363e-05 0 -3.775216e-05 0 1.072596e-11)
(7.125889e-05 3.469697e-05 0 3.003781e-05 0 7.633583e-11)
(4.267974 0.0659027 0 1.989897e-05 0 4.228566e-06)
(4.261168 0.06592434 0 2.323947e-05 0 4.301425e-06)
(4.246558 0.06600126 0 3.248535e-05 0 4.488718e-06)
(4.2217 0.06617086 0 5.195102e-05 0 4.645266e-06)
(4.184705 0.06649706 0 8.780988e-05 0 4.742021e-06)
(4.134685 0.06708181 0 0.0001484603 0 4.92769e-06)
(4.067184 0.06799167 0 0.000244541 0 4.781069e-06)
(3.977187 0.06926879 0 0.0003929201 0 3.616175e-06)
(3.868404 0.07101758 0 0.0006061628 0 1.688794e-06)
(3.752053 0.07340049 0 0.0008973068 0 1.794048e-08)
(3.636254 0.07651297 0 0.001281845 0 -9.445339e-07)
(3.524482 0.08037175 0 0.001777457 0 -1.254968e-06)
(3.417139 0.08493603 0 0.0024037 0 -1.13894e-06)
(3.312926 0.09011814 0 0.003181023 0 -8.211772e-07)
(3.209819 0.09578821 0 0.004129178 0 -4.662869e-07)
(3.105733 0.1017792 0 0.005265243 0 -1.720247e-07)
(2.998949 0.1078957 0 0.006601539 0 1.907244e-08)
(2.888361 0.1139266 0 0.008143751 0 1.035596e-07)
(2.773555 0.1196601 0 0.009889498 0 1.01323e-07)
(2.65475 0.124898 0 0.01182755 0 4.202416e-08)
(2.532658 0.1294676 0 0.01393773 0 -4.452755e-08)
(2.408292 0.1332289 0 0.01619143 0 -1.344644e-07)
(2.282794 0.1360789 0 0.01855266 0 -2.119799e-07)
(2.157286 0.137951 0 0.02097947 0 -2.691135e-07)
(2.032773 0.1388127 0 0.02342559 0 -3.03701e-07)
(1.910093 0.1386608 0 0.02584179 0 -3.173386e-07)
(1.789891 0.1375156 0 0.02817691 0 -3.137627e-07)
(1.672627 0.1354157 0 0.03037887 0 -2.974724e-07)
(1.5586 0.1324133 0 0.03239581 0 -2.725397e-07)
(1.447971 0.1285714 0 0.03417718 0 -2.425443e-07)
(1.340795 0.1239597 0 0.03567477 0 -2.105261e-07)
(1.237049 0.1186529 0 0.03684384 0 -1.785946e-07)
(1.136658 0.1127286 0 0.03764418 0 -1.483593e-07)
(1.039521 0.1062661 0 0.03804113 0 -1.207903e-07)
(0.9455311 0.09934569 0 0.0380067 0 -9.675727e-08)
(0.8546013 0.0920486 0 0.03752074 0 -7.644978e-08)
(0.7666822 0.0844574 0 0.03657234 0 -6.050546e-08)
(0.6817901 0.07665768 0 0.03516155 0 -4.932331e-08)
(0.6000369 0.06874073 0 0.03330195 0 -4.341238e-08)
(0.5216685 0.06080756 0 0.03102401 0 -4.32461e-08)
(0.4471106 0.05297415 0 0.02837978 0 -4.935674e-08)
(0.3770087 0.04537675 0 0.02544815 0 -6.111609e-08)
(0.312237 0.0381734 0 0.02233871 0 -7.656814e-08)
(0.2538283 0.03153664 0 0.01918998 0 -9.165048e-08)
(0.2027845 0.02563133 0 0.01615654 0 -1.011013e-07)
(0.1597857 0.02057973 0 0.01338338 0 -1.005625e-07)
(0.1249133 0.01642708 0 0.01097471 0 -8.984252e-08)
(0.09756142 0.01312923 0 0.008973436 0 -7.24657e-08)
(0.07660509 0.01057194 0 0.00736312 0 -5.392021e-08)
(0.06071873 0.008609611 0 0.006089157 0 -3.764483e-08)
(0.04866086 0.007101169 0 0.005084202 0 -2.557186e-08)
(0.03942082 0.005929604 0 0.004285708 0 -1.70991e-08)
(0.03224129 0.005006182 0 0.003643111 0 -1.146122e-08)
(0.02657776 0.004266544 0 0.003118259 0 -7.742122e-09)
(0.02204401 0.00366471 0 0.002683178 0 -5.330272e-09)
(0.01836535 0.003167752 0 0.002317465 0 -3.711432e-09)
(0.01534442 0.002751846 0 0.002006152 0 -2.687073e-09)
(0.0128374 0.00239951 0 0.001738141 0 -1.895262e-09)
(0.0107381 0.002097737 0 0.001505101 0 -1.424414e-09)
(0.008967092 0.001836722 0 0.001300705 0 -1.02964e-09)
(0.007464214 0.001608992 0 0.001120108 0 -8.167981e-10)
(0.006183443 0.001408799 0 0.0009595587 0 -5.233489e-10)
(0.005089454 0.001231739 0 0.0008162161 0 -4.746148e-10)
(0.00415453 0.001074376 0 0.0006878501 0 -3.056135e-10)
(0.003354891 0.0009337407 0 0.0005723712 0 -2.256154e-10)
(0.00267146 0.0008072879 0 0.0004686383 0 -2.502295e-10)
(0.002089046 0.0006927718 0 0.0003762128 0 -5.867605e-10)
(0.001593959 0.0005881201 0 0.0002941757 0 -9.816033e-10)
(0.001178887 0.0004920966 0 0.0002229817 0 -1.027502e-09)
(0.0008295904 0.0004028756 0 0.0001596144 0 -8.959606e-10)
(0.0005613976 0.0003213869 0 0.0001126224 0 2.951978e-10)
(0.0003081759 0.0002422887 0 5.60188e-05 0 2.110523e-09)
(0.0002442353 0.0001747678 0 6.692447e-05 0 -9.445647e-10)
(-5.15901e-05 9.917363e-05 0 -3.775216e-05 0 1.072596e-11)
(7.125889e-05 3.469697e-05 0 3.003781e-05 0 7.633583e-11)
)
;
    }
    wall
    {
        type            calculated;
        value           nonuniform List<symmTensor> 2((4.267976 0.06590276 0 1.989967e-05 0 4.228584e-06) (4.267973 0.06590265 0 1.989828e-05 0 4.228548e-06));
    }
    frontAndBack
    {
        type            empty;
    }
    middle
    {
        type            symmetryPlane;
        value           nonuniform List<symmTensor> 2((7.126033e-05 0 0 3.003825e-05 0 1.056891e-09) (7.125745e-05 0 0 3.003738e-05 0 -9.042191e-10));
    }
}


// ************************************************************************* //
