/*--------------------------------*- C++ -*----------------------------------*\
| =========                 |                                                 |
| \\      /  F ield         | foam-extend: Open Source CFD                    |
|  \\    /   O peration     | Version:     4.0                                |
|   \\  /    A nd           | Web:         http://www.foam-extend.org         |
|    \\/     M anipulation  |                                                 |
\*---------------------------------------------------------------------------*/
FoamFile
{
    version     2.0;
    format      ascii;
    class       volScalarField;
    location    "100";
    object      trC;
}
// * * * * * * * * * * * * * * * * * * * * * * * * * * * * * * * * * * * * * //

dimensions      [0 0 0 0 0 0 0];

internalField   nonuniform List<scalar> 
150
(
1341.723
1341.723
1340.383
1340.382
1337.5
1337.5
1332.58
1332.58
1325.219
1325.219
1315.192
1315.192
1301.523
1301.523
1283.046
1283.047
1260.32
1260.32
1235.526
1235.527
1210.345
1210.345
1185.553
1185.554
1161.29
1161.29
1137.302
1137.302
1113.143
1113.143
1088.312
1088.312
1062.359
1062.359
1034.951
1034.951
1005.901
1005.901
975.1738
975.1739
942.8605
942.8606
909.1464
909.1465
874.2719
874.2719
838.4977
838.4978
802.0789
802.079
765.2461
765.2462
728.1939
728.1941
691.0773
691.0776
654.0118
654.0121
617.0767
617.077
580.32
580.3204
543.765
543.7654
507.4174
507.418
471.2726
471.2732
435.3238
435.3244
399.5712
399.5718
364.0323
364.0329
328.7553
328.756
293.8366
293.8373
259.4431
259.4437
225.8412
225.842
193.4257
193.4263
162.7333
162.7341
134.4183
134.4189
109.1562
109.1568
87.48437
87.48478
69.63292
69.6332
55.44945
55.44965
44.46749
44.46761
36.07084
36.07091
29.65248
29.65253
24.70436
24.70439
20.83921
20.83923
17.77542
17.77543
15.31161
15.31162
13.3037
13.3037
11.64764
11.64765
10.26734
10.26735
9.106421
9.106421
8.12257
8.122569
7.28369
7.28369
6.565165
6.565165
5.948103
5.948103
5.417666
5.417667
4.961022
4.961023
4.568134
4.568136
4.231241
4.231242
3.943078
3.943081
3.700248
3.700249
3.494146
3.494147
3.336715
3.336714
3.181948
3.181945
3.155453
3.155449
3
3
3.050609
3.050607
)
;

boundaryField
{
    leftandright
    {
        type            cyclic;
        value           nonuniform List<scalar> 
150
(
1341.723
1340.382
1337.5
1332.58
1325.219
1315.192
1301.523
1283.047
1260.32
1235.527
1210.345
1185.554
1161.29
1137.302
1113.143
1088.312
1062.359
1034.951
1005.901
975.1739
942.8605
909.1464
874.2719
838.4977
802.0789
765.2461
728.194
691.0775
654.012
617.0768
580.3202
543.7652
507.4177
471.2729
435.3241
399.5715
364.0326
328.7557
293.8369
259.4434
225.8416
193.426
162.7337
134.4186
109.1565
87.48458
69.63306
55.44955
44.46755
36.07087
29.6525
24.70437
20.83922
17.77543
15.31162
13.3037
11.64765
10.26734
9.106421
8.12257
7.28369
6.565165
5.948103
5.417666
4.961023
4.568135
4.231242
3.94308
3.700248
3.494146
3.336715
3.181947
3.155451
3
3.050608
1341.723
1340.382
1337.5
1332.58
1325.219
1315.192
1301.523
1283.047
1260.32
1235.527
1210.345
1185.554
1161.29
1137.302
1113.143
1088.312
1062.359
1034.951
1005.901
975.1739
942.8605
909.1464
874.2719
838.4977
802.0789
765.2461
728.194
691.0775
654.012
617.0768
580.3202
543.7652
507.4177
471.2729
435.3241
399.5715
364.0326
328.7557
293.8369
259.4434
225.8416
193.426
162.7337
134.4186
109.1565
87.48458
69.63306
55.44955
44.46755
36.07087
29.6525
24.70437
20.83922
17.77543
15.31162
13.3037
11.64765
10.26734
9.106421
8.12257
7.28369
6.565165
5.948103
5.417666
4.961023
4.568135
4.231242
3.94308
3.700248
3.494146
3.336715
3.181947
3.155451
3
3.050608
)
;
    }
    wall
    {
        type            calculated;
        value           nonuniform List<scalar> 2(1341.723 1341.723);
    }
    frontAndBack
    {
        type            empty;
    }
    middle
    {
        type            symmetryPlane;
        value           nonuniform List<scalar> 2(3.050609 3.050607);
    }
}


// ************************************************************************* //
