/*--------------------------------*- C++ -*----------------------------------*\
| =========                 |                                                 |
| \\      /  F ield         | foam-extend: Open Source CFD                    |
|  \\    /   O peration     | Version:     4.0                                |
|   \\  /    A nd           | Web:         http://www.foam-extend.org         |
|    \\/     M anipulation  |                                                 |
\*---------------------------------------------------------------------------*/
FoamFile
{
    version     2.0;
    format      ascii;
    class       volVectorField;
    location    "100";
    object      U;
}
// * * * * * * * * * * * * * * * * * * * * * * * * * * * * * * * * * * * * * //

dimensions      [0 1 -1 0 0 0 0];

internalField   nonuniform List<vector> 
150
(
(0.3805227 1.644474e-05 0)
(0.3805227 1.644443e-05 0)
(1.159709 3.855247e-05 0)
(1.159709 3.855181e-05 0)
(1.975914 3.608165e-05 0)
(1.975914 3.60811e-05 0)
(2.827299 2.507244e-05 0)
(2.827299 2.507198e-05 0)
(3.709487 1.092775e-05 0)
(3.709487 1.092732e-05 0)
(4.616455 -5.559682e-06 0)
(4.616455 -5.560084e-06 0)
(5.542101 -2.236586e-05 0)
(5.542101 -2.236623e-05 0)
(6.472607 -3.117624e-05 0)
(6.472607 -3.117659e-05 0)
(7.389718 -3.214254e-05 0)
(7.389718 -3.214286e-05 0)
(8.281725 -3.095493e-05 0)
(8.281725 -3.095523e-05 0)
(9.140663 -2.824643e-05 0)
(9.140663 -2.824671e-05 0)
(9.960826 -2.39612e-05 0)
(9.960826 -2.396147e-05 0)
(10.73851 -1.878575e-05 0)
(10.73851 -1.878601e-05 0)
(11.47174 -1.348552e-05 0)
(11.47174 -1.348578e-05 0)
(12.15998 -8.60989e-06 0)
(12.15998 -8.610125e-06 0)
(12.80384 -4.460728e-06 0)
(12.80384 -4.460945e-06 0)
(13.40481 -1.147196e-06 0)
(13.40481 -1.147407e-06 0)
(13.96502 1.349848e-06 0)
(13.96502 1.349653e-06 0)
(14.48702 3.122773e-06 0)
(14.48702 3.1226e-06 0)
(14.97362 4.29655e-06 0)
(14.97362 4.296403e-06 0)
(15.4277 5.003318e-06 0)
(15.4277 5.003179e-06 0)
(15.85216 5.368622e-06 0)
(15.85216 5.368524e-06 0)
(16.24979 5.498212e-06 0)
(16.24979 5.498204e-06 0)
(16.62324 5.416142e-06 0)
(16.62324 5.416197e-06 0)
(16.97497 5.112644e-06 0)
(16.97497 5.112714e-06 0)
(17.30725 4.66105e-06 0)
(17.30725 4.661149e-06 0)
(17.62213 4.158121e-06 0)
(17.62213 4.158309e-06 0)
(17.92147 3.655018e-06 0)
(17.92147 3.655561e-06 0)
(18.20693 3.176366e-06 0)
(18.20693 3.176975e-06 0)
(18.48002 2.732896e-06 0)
(18.48002 2.733298e-06 0)
(18.7421 2.32796e-06 0)
(18.7421 2.328558e-06 0)
(18.99438 1.962676e-06 0)
(18.99438 1.963395e-06 0)
(19.23794 1.634681e-06 0)
(19.23794 1.635349e-06 0)
(19.47377 1.340512e-06 0)
(19.47377 1.341471e-06 0)
(19.70275 1.075451e-06 0)
(19.70275 1.076433e-06 0)
(19.92568 8.328711e-07 0)
(19.92568 8.335813e-07 0)
(20.14326 6.032299e-07 0)
(20.14326 6.042467e-07 0)
(20.35615 3.757302e-07 0)
(20.35615 3.766824e-07 0)
(20.56491 1.381097e-07 0)
(20.56491 1.388804e-07 0)
(20.77006 -1.183936e-07 0)
(20.77006 -1.176804e-07 0)
(20.97204 -3.801281e-07 0)
(20.97204 -3.796754e-07 0)
(21.17122 -5.909268e-07 0)
(21.17122 -5.906103e-07 0)
(21.36791 -6.334598e-07 0)
(21.36791 -6.332071e-07 0)
(21.56234 -3.595102e-07 0)
(21.56234 -3.596411e-07 0)
(21.75466 3.073258e-07 0)
(21.75466 3.068311e-07 0)
(21.94497 1.257467e-06 0)
(21.94497 1.256934e-06 0)
(22.13328 2.19935e-06 0)
(22.13328 2.198749e-06 0)
(22.3196 2.836999e-06 0)
(22.3196 2.836477e-06 0)
(22.50389 3.061111e-06 0)
(22.50389 3.06062e-06 0)
(22.68614 2.968216e-06 0)
(22.68614 2.967858e-06 0)
(22.86632 2.73027e-06 0)
(22.86632 2.730032e-06 0)
(23.04439 2.474216e-06 0)
(23.04439 2.474056e-06 0)
(23.2203 2.252896e-06 0)
(23.2203 2.252807e-06 0)
(23.39399 2.07209e-06 0)
(23.39399 2.072056e-06 0)
(23.56537 1.92004e-06 0)
(23.56537 1.920049e-06 0)
(23.73428 1.781909e-06 0)
(23.73428 1.781928e-06 0)
(23.90058 1.643629e-06 0)
(23.90058 1.643655e-06 0)
(24.06403 1.491666e-06 0)
(24.06403 1.491673e-06 0)
(24.22435 1.311286e-06 0)
(24.22435 1.311289e-06 0)
(24.38123 1.089959e-06 0)
(24.38123 1.089975e-06 0)
(24.53428 8.003592e-07 0)
(24.53428 8.003685e-07 0)
(24.68305 4.444161e-07 0)
(24.68305 4.444211e-07 0)
(24.82706 -4.50541e-07 0)
(24.82706 -4.505401e-07 0)
(24.96575 3.787591e-07 0)
(24.96575 3.787581e-07 0)
(25.09856 3.45804e-06 0)
(25.09856 3.458043e-06 0)
(25.22486 4.485986e-06 0)
(25.22486 4.485964e-06 0)
(25.34388 2.576611e-06 0)
(25.34388 2.576582e-06 0)
(25.45469 5.877163e-06 0)
(25.45469 5.877131e-06 0)
(25.55624 -8.802145e-06 0)
(25.55624 -8.802179e-06 0)
(25.64737 4.155191e-05 0)
(25.64737 4.155187e-05 0)
(25.72687 -0.0001338459 0)
(25.72687 -0.0001338459 0)
(25.79348 0.0004403003 0)
(25.79348 0.0004403002 0)
(25.84591 -0.001424297 0)
(25.84591 -0.001424297 0)
(25.88275 0.00436113 0)
(25.88275 0.00436113 0)
(25.9023 -0.008378462 0)
(25.9023 -0.008378462 0)
)
;

boundaryField
{
    leftandright
    {
        type            cyclic;
        value           nonuniform List<vector> 
150
(
(0.3805227 1.644458e-05 0)
(1.159709 3.855214e-05 0)
(1.975914 3.608137e-05 0)
(2.827299 2.507221e-05 0)
(3.709487 1.092754e-05 0)
(4.616455 -5.559883e-06 0)
(5.542101 -2.236605e-05 0)
(6.472607 -3.117641e-05 0)
(7.389718 -3.21427e-05 0)
(8.281725 -3.095508e-05 0)
(9.140663 -2.824657e-05 0)
(9.960826 -2.396133e-05 0)
(10.73851 -1.878588e-05 0)
(11.47174 -1.348565e-05 0)
(12.15998 -8.610007e-06 0)
(12.80384 -4.460836e-06 0)
(13.40481 -1.147301e-06 0)
(13.96502 1.34975e-06 0)
(14.48702 3.122686e-06 0)
(14.97362 4.296476e-06 0)
(15.4277 5.003249e-06 0)
(15.85216 5.368573e-06 0)
(16.24979 5.498208e-06 0)
(16.62324 5.41617e-06 0)
(16.97497 5.112679e-06 0)
(17.30725 4.6611e-06 0)
(17.62213 4.158215e-06 0)
(17.92147 3.65529e-06 0)
(18.20693 3.17667e-06 0)
(18.48002 2.733097e-06 0)
(18.7421 2.328259e-06 0)
(18.99438 1.963036e-06 0)
(19.23794 1.635015e-06 0)
(19.47377 1.340992e-06 0)
(19.70275 1.075942e-06 0)
(19.92568 8.332262e-07 0)
(20.14326 6.037383e-07 0)
(20.35615 3.762063e-07 0)
(20.56491 1.38495e-07 0)
(20.77006 -1.18037e-07 0)
(20.97204 -3.799017e-07 0)
(21.17122 -5.907685e-07 0)
(21.36791 -6.333335e-07 0)
(21.56234 -3.595756e-07 0)
(21.75466 3.070784e-07 0)
(21.94497 1.257201e-06 0)
(22.13328 2.199049e-06 0)
(22.3196 2.836738e-06 0)
(22.50389 3.060866e-06 0)
(22.68614 2.968037e-06 0)
(22.86632 2.730151e-06 0)
(23.04439 2.474136e-06 0)
(23.2203 2.252852e-06 0)
(23.39399 2.072073e-06 0)
(23.56537 1.920044e-06 0)
(23.73428 1.781919e-06 0)
(23.90058 1.643642e-06 0)
(24.06403 1.49167e-06 0)
(24.22435 1.311288e-06 0)
(24.38123 1.089967e-06 0)
(24.53428 8.003639e-07 0)
(24.68305 4.444186e-07 0)
(24.82706 -4.505406e-07 0)
(24.96575 3.787586e-07 0)
(25.09856 3.458042e-06 0)
(25.22486 4.485975e-06 0)
(25.34388 2.576597e-06 0)
(25.45469 5.877147e-06 0)
(25.55624 -8.802162e-06 0)
(25.64737 4.155189e-05 0)
(25.72687 -0.0001338459 0)
(25.79348 0.0004403002 0)
(25.84591 -0.001424297 0)
(25.88275 0.00436113 0)
(25.9023 -0.008378462 0)
(0.3805227 1.644458e-05 0)
(1.159709 3.855214e-05 0)
(1.975914 3.608137e-05 0)
(2.827299 2.507221e-05 0)
(3.709487 1.092754e-05 0)
(4.616455 -5.559883e-06 0)
(5.542101 -2.236605e-05 0)
(6.472607 -3.117641e-05 0)
(7.389718 -3.21427e-05 0)
(8.281725 -3.095508e-05 0)
(9.140663 -2.824657e-05 0)
(9.960826 -2.396133e-05 0)
(10.73851 -1.878588e-05 0)
(11.47174 -1.348565e-05 0)
(12.15998 -8.610007e-06 0)
(12.80384 -4.460836e-06 0)
(13.40481 -1.147301e-06 0)
(13.96502 1.34975e-06 0)
(14.48702 3.122686e-06 0)
(14.97362 4.296476e-06 0)
(15.4277 5.003249e-06 0)
(15.85216 5.368573e-06 0)
(16.24979 5.498208e-06 0)
(16.62324 5.41617e-06 0)
(16.97497 5.112679e-06 0)
(17.30725 4.6611e-06 0)
(17.62213 4.158215e-06 0)
(17.92147 3.65529e-06 0)
(18.20693 3.17667e-06 0)
(18.48002 2.733097e-06 0)
(18.7421 2.328259e-06 0)
(18.99438 1.963036e-06 0)
(19.23794 1.635015e-06 0)
(19.47377 1.340992e-06 0)
(19.70275 1.075942e-06 0)
(19.92568 8.332262e-07 0)
(20.14326 6.037383e-07 0)
(20.35615 3.762063e-07 0)
(20.56491 1.38495e-07 0)
(20.77006 -1.18037e-07 0)
(20.97204 -3.799017e-07 0)
(21.17122 -5.907685e-07 0)
(21.36791 -6.333335e-07 0)
(21.56234 -3.595756e-07 0)
(21.75466 3.070784e-07 0)
(21.94497 1.257201e-06 0)
(22.13328 2.199049e-06 0)
(22.3196 2.836738e-06 0)
(22.50389 3.060866e-06 0)
(22.68614 2.968037e-06 0)
(22.86632 2.730151e-06 0)
(23.04439 2.474136e-06 0)
(23.2203 2.252852e-06 0)
(23.39399 2.072073e-06 0)
(23.56537 1.920044e-06 0)
(23.73428 1.781919e-06 0)
(23.90058 1.643642e-06 0)
(24.06403 1.49167e-06 0)
(24.22435 1.311288e-06 0)
(24.38123 1.089967e-06 0)
(24.53428 8.003639e-07 0)
(24.68305 4.444186e-07 0)
(24.82706 -4.505406e-07 0)
(24.96575 3.787586e-07 0)
(25.09856 3.458042e-06 0)
(25.22486 4.485975e-06 0)
(25.34388 2.576597e-06 0)
(25.45469 5.877147e-06 0)
(25.55624 -8.802162e-06 0)
(25.64737 4.155189e-05 0)
(25.72687 -0.0001338459 0)
(25.79348 0.0004403002 0)
(25.84591 -0.001424297 0)
(25.88275 0.00436113 0)
(25.9023 -0.008378462 0)
)
;
    }
    wall
    {
        type            fixedValue;
        value           uniform (0 0 0);
    }
    frontAndBack
    {
        type            empty;
    }
    middle
    {
        type            symmetryPlane;
        value           nonuniform List<vector> 2((25.9023 0 0) (25.9023 0 0));
    }
}


// ************************************************************************* //
