/*--------------------------------*- C++ -*----------------------------------*\
| =========                 |                                                 |
| \\      /  F ield         | foam-extend: Open Source CFD                    |
|  \\    /   O peration     | Version:     4.0                                |
|   \\  /    A nd           | Web:         http://www.foam-extend.org         |
|    \\/     M anipulation  |                                                 |
\*---------------------------------------------------------------------------*/
FoamFile
{
    version     2.0;
    format      ascii;
    class       volScalarField;
    location    "100";
    object      v2;
}
// * * * * * * * * * * * * * * * * * * * * * * * * * * * * * * * * * * * * * //

dimensions      [0 2 -2 0 0 0 0];

internalField   nonuniform List<scalar> 
150
(
3.348016e-06
3.348017e-06
0.0001567373
0.0001567374
0.0008896227
0.0008896229
0.002737706
0.002737706
0.00618857
0.006188571
0.01160781
0.01160781
0.01923105
0.01923105
0.02910841
0.02910841
0.04111923
0.04111923
0.0550941
0.05509411
0.07082191
0.07082192
0.08805564
0.08805566
0.1065325
0.1065325
0.1259924
0.1259925
0.146192
0.1461921
0.1669136
0.1669137
0.1879691
0.1879692
0.2092004
0.2092004
0.2304769
0.2304769
0.2516928
0.2516928
0.2727631
0.2727632
0.2936209
0.2936209
0.3142142
0.3142142
0.3345051
0.3345052
0.3544693
0.3544693
0.3740917
0.3740917
0.3933616
0.3933616
0.4122688
0.4122688
0.4308017
0.4308018
0.4489463
0.4489464
0.4666853
0.4666853
0.4839975
0.4839975
0.5008584
0.5008584
0.5172393
0.5172393
0.5331079
0.5331079
0.5484278
0.5484279
0.5631589
0.5631589
0.5772571
0.5772571
0.5906744
0.5906744
0.603359
0.6033591
0.6152556
0.6152556
0.6263054
0.6263054
0.6364472
0.6364472
0.6456185
0.6456185
0.6537572
0.6537572
0.6608041
0.6608041
0.6667052
0.6667052
0.6714141
0.671414
0.674893
0.674893
0.6771137
0.6771137
0.6780568
0.6780568
0.6777114
0.6777114
0.6760744
0.6760744
0.6731503
0.6731503
0.6689505
0.6689505
0.6634929
0.6634929
0.6568012
0.6568012
0.6489031
0.6489031
0.6398284
0.6398284
0.6296044
0.6296044
0.61825
0.6182499
0.6057657
0.6057657
0.5921196
0.5921196
0.5772258
0.5772258
0.5609139
0.5609138
0.5433276
0.5433276
0.524983
0.5249829
0.5064179
0.5064179
0.4881933
0.4881933
0.4708865
0.4708865
0.4550785
0.4550785
0.4413398
0.4413398
0.4302188
0.4302188
0.4222499
0.4222499
0.4179641
0.4179641
)
;

boundaryField
{
    leftandright
    {
        type            cyclic;
        value           nonuniform List<scalar> 
150
(
3.348017e-06
0.0001567373
0.0008896228
0.002737706
0.006188571
0.01160781
0.01923105
0.02910841
0.04111923
0.05509411
0.07082191
0.08805565
0.1065325
0.1259925
0.1461921
0.1669137
0.1879692
0.2092004
0.2304769
0.2516928
0.2727632
0.2936209
0.3142142
0.3345052
0.3544693
0.3740917
0.3933616
0.4122688
0.4308017
0.4489464
0.4666853
0.4839975
0.5008584
0.5172393
0.5331079
0.5484278
0.5631589
0.5772571
0.5906744
0.6033591
0.6152556
0.6263054
0.6364472
0.6456185
0.6537572
0.6608041
0.6667052
0.671414
0.674893
0.6771137
0.6780568
0.6777114
0.6760744
0.6731503
0.6689505
0.6634929
0.6568012
0.6489031
0.6398284
0.6296044
0.61825
0.6057657
0.5921196
0.5772258
0.5609139
0.5433276
0.524983
0.5064179
0.4881933
0.4708865
0.4550785
0.4413398
0.4302188
0.4222499
0.4179641
3.348017e-06
0.0001567373
0.0008896228
0.002737706
0.006188571
0.01160781
0.01923105
0.02910841
0.04111923
0.05509411
0.07082191
0.08805565
0.1065325
0.1259925
0.1461921
0.1669137
0.1879692
0.2092004
0.2304769
0.2516928
0.2727632
0.2936209
0.3142142
0.3345052
0.3544693
0.3740917
0.3933616
0.4122688
0.4308017
0.4489464
0.4666853
0.4839975
0.5008584
0.5172393
0.5331079
0.5484278
0.5631589
0.5772571
0.5906744
0.6033591
0.6152556
0.6263054
0.6364472
0.6456185
0.6537572
0.6608041
0.6667052
0.671414
0.674893
0.6771137
0.6780568
0.6777114
0.6760744
0.6731503
0.6689505
0.6634929
0.6568012
0.6489031
0.6398284
0.6296044
0.61825
0.6057657
0.5921196
0.5772258
0.5609139
0.5433276
0.524983
0.5064179
0.4881933
0.4708865
0.4550785
0.4413398
0.4302188
0.4222499
0.4179641
)
;
    }
    wall
    {
        type            fixedValue;
        value           uniform 1e-10;
    }
    frontAndBack
    {
        type            empty;
    }
    middle
    {
        type            symmetryPlane;
        value           nonuniform List<scalar> 2(0.4179641 0.4179641);
    }
}


// ************************************************************************* //
