/*--------------------------------*- C++ -*----------------------------------*\
| =========                 |                                                 |
| \\      /  F ield         | foam-extend: Open Source CFD                    |
|  \\    /   O peration     | Version:     4.0                                |
|   \\  /    A nd           | Web:         http://www.foam-extend.org         |
|    \\/     M anipulation  |                                                 |
\*---------------------------------------------------------------------------*/
FoamFile
{
    version     2.0;
    format      ascii;
    class       volScalarField;
    location    "100";
    object      yPlus;
}
// * * * * * * * * * * * * * * * * * * * * * * * * * * * * * * * * * * * * * //

dimensions      [0 -1 1 0 0 0 0];

internalField   nonuniform List<scalar> 
150
(
0.3673662
0.3673662
1.120876
1.120876
1.912899
1.912899
2.745406
2.745406
3.620465
3.620465
4.54025
4.54025
5.507049
5.507049
6.523264
6.523264
7.59142
7.59142
8.714174
8.714174
9.894315
9.894315
11.13478
11.13478
12.43864
12.43864
13.80915
13.80915
15.24971
15.24971
16.76391
16.76391
18.35549
18.35549
20.02843
20.02843
21.78688
21.78688
23.63521
23.63521
25.57801
25.57801
27.62012
27.62012
29.7666
29.7666
32.02279
32.02279
34.39431
34.39431
36.88705
36.88705
39.50719
39.50719
42.26126
42.26126
45.1561
45.1561
48.1989
48.1989
51.39723
51.39723
54.75903
54.75903
58.29267
58.29267
62.00692
62.00692
65.91102
65.91102
70.01467
70.01467
74.32807
74.32807
78.86194
78.86194
83.62756
83.62756
88.63676
88.63676
93.90199
93.90199
99.43635
99.43635
105.2536
105.2536
111.3682
111.3682
117.7953
117.7953
124.5509
124.5509
131.6518
131.6518
139.1157
139.1157
146.961
146.961
155.2074
155.2074
163.8753
163.8753
172.9862
172.9862
182.5628
182.5628
192.6289
192.6289
203.2095
203.2095
214.3309
214.3309
226.0207
226.0207
238.3081
238.3081
251.2235
251.2235
264.799
264.799
279.0685
279.0685
294.0672
294.0672
309.8327
309.8327
326.4039
326.4039
343.8222
343.8222
362.1307
362.1307
381.3751
381.3751
401.6031
401.6031
422.865
422.865
445.2137
445.2137
468.7047
468.7047
493.3964
493.3964
519.3502
519.3502
546.6305
546.6305
575.3052
575.3052
)
;

boundaryField
{
    leftandright
    {
        type            cyclic;
        value           nonuniform List<scalar> 
150
(
14.75457
14.79252
14.87352
15.00332
15.18783
15.43296
15.74452
16.12809
16.58891
17.13182
17.76119
18.48095
19.29462
20.20532
21.21594
22.32915
23.54754
24.87369
26.31028
27.86011
29.52621
31.31187
33.22067
35.25651
37.42367
39.72677
42.17085
44.76133
47.50406
50.40532
53.47184
56.71079
60.12984
63.73712
67.54128
71.5515
75.77747
80.22948
84.91838
89.85564
95.05339
100.5244
106.2821
112.3407
118.7151
125.4212
132.4755
139.8954
147.6994
155.9067
164.5377
173.6139
183.1577
193.1928
203.7441
214.8378
226.5015
238.7641
251.6561
265.2095
279.458
294.4369
310.1836
326.737
344.1384
362.431
381.6602
401.8739
423.1222
445.458
468.9367
493.6168
519.5596
546.8295
575.4943
14.75457
14.79252
14.87352
15.00332
15.18783
15.43296
15.74452
16.12809
16.58891
17.13182
17.76119
18.48095
19.29462
20.20532
21.21594
22.32915
23.54754
24.87369
26.31028
27.86011
29.52621
31.31187
33.22067
35.25651
37.42367
39.72677
42.17085
44.76133
47.50406
50.40532
53.47184
56.71079
60.12984
63.73712
67.54128
71.5515
75.77747
80.22948
84.91838
89.85564
95.05339
100.5244
106.2821
112.3407
118.7151
125.4212
132.4755
139.8954
147.6994
155.9067
164.5377
173.6139
183.1577
193.1928
203.7441
214.8378
226.5015
238.7641
251.6561
265.2095
279.458
294.4369
310.1836
326.737
344.1384
362.431
381.6602
401.8739
423.1222
445.458
468.9367
493.6168
519.5596
546.8295
575.4943
)
;
    }
    wall
    {
        type            calculated;
        value           uniform 5.899999e-13;
    }
    frontAndBack
    {
        type            empty;
    }
    middle
    {
        type            symmetryPlane;
        value           uniform 589.9999;
    }
}


// ************************************************************************* //
