/*--------------------------------*- C++ -*----------------------------------*\
| =========                 |                                                 |
| \\      /  F ield         | foam-extend: Open Source CFD                    |
|  \\    /   O peration     | Version:     4.0                                |
|   \\  /    A nd           | Web:         http://www.foam-extend.org         |
|    \\/     M anipulation  |                                                 |
\*---------------------------------------------------------------------------*/
FoamFile
{
    version     2.0;
    format      ascii;
    class       volSymmTensorField;
    location    "1000";
    object      C;
}
// * * * * * * * * * * * * * * * * * * * * * * * * * * * * * * * * * * * * * //

dimensions      [0 0 0 0 0 0 0];

internalField   nonuniform List<symmTensor> 
150
(
(335.1462 10.27771 0 0.6300042 0 0.629103)
(335.1462 10.27771 0 0.6300042 0 0.629103)
(334.8531 10.27765 0 0.6305452 0 0.6294204)
(334.8531 10.27765 0 0.6305452 0 0.6294204)
(334.2689 10.27973 0 0.6318666 0 0.6301015)
(334.2689 10.27973 0 0.6318666 0 0.6301015)
(333.3051 10.28497 0 0.6344353 0 0.6312166)
(333.3051 10.28497 0 0.6344353 0 0.6312166)
(331.8366 10.29504 0 0.6390003 0 0.6328529)
(331.8366 10.29504 0 0.6390003 0 0.6328529)
(329.7734 10.31433 0 0.6466131 0 0.6350881)
(329.7734 10.31433 0 0.6466131 0 0.6350881)
(327.1108 10.35097 0 0.6585556 0 0.6379697)
(327.1108 10.35097 0 0.6585556 0 0.6379697)
(323.9013 10.41622 0 0.6763329 0 0.6415336)
(323.9013 10.41622 0 0.6763329 0 0.6415336)
(320.0549 10.52 0 0.7019794 0 0.6458753)
(320.0549 10.52 0 0.7019794 0 0.6458753)
(315.2063 10.66484 0 0.7389758 0 0.6511681)
(315.2063 10.66484 0 0.7389758 0 0.6511681)
(309.2264 10.85324 0 0.7917241 0 0.6574688)
(309.2264 10.85324 0 0.7917241 0 0.6574688)
(302.3933 11.09054 0 0.8610012 0 0.6645873)
(302.3933 11.09054 0 0.8610013 0 0.6645873)
(295.279 11.38245 0 0.9481033 0 0.6721428)
(295.279 11.38245 0 0.9481033 0 0.6721428)
(288.1561 11.72509 0 1.054702 0 0.679831)
(288.1561 11.72509 0 1.054702 0 0.679831)
(281.1424 12.11102 0 1.182719 0 0.6874669)
(281.1424 12.11102 0 1.182719 0 0.6874669)
(274.2779 12.53112 0 1.334178 0 0.6949606)
(274.2779 12.53112 0 1.334178 0 0.6949606)
(267.5598 12.97494 0 1.511022 0 0.7022858)
(267.5598 12.97494 0 1.511022 0 0.7022858)
(260.9604 13.4307 0 1.7149 0 0.709456)
(260.9604 13.4307 0 1.7149 0 0.709456)
(254.4374 13.88551 0 1.946971 0 0.7165082)
(254.4374 13.88551 0 1.946971 0 0.7165082)
(247.9421 14.32574 0 2.207715 0 0.7234917)
(247.9421 14.32574 0 2.207715 0 0.7234917)
(241.4258 14.73761 0 2.496774 0 0.7304593)
(241.4258 14.73761 0 2.496774 0 0.7304593)
(234.8444 15.10783 0 2.812836 0 0.7374612)
(234.8444 15.10783 0 2.812836 0 0.7374612)
(228.1617 15.42418 0 3.153566 0 0.7445416)
(228.1617 15.42418 0 3.153566 0 0.7445416)
(221.3497 15.67599 0 3.515593 0 0.7517367)
(221.3497 15.67599 0 3.515593 0 0.7517367)
(214.3885 15.85453 0 3.89454 0 0.7590748)
(214.3885 15.85453 0 3.894541 0 0.7590748)
(207.2658 15.95315 0 4.285105 0 0.766577)
(207.2658 15.95315 0 4.285105 0 0.766577)
(199.9747 15.96738 0 4.681164 0 0.7742587)
(199.9747 15.96738 0 4.681164 0 0.7742587)
(192.5128 15.89482 0 5.075919 0 0.7821309)
(192.5128 15.89482 0 5.075919 0 0.7821309)
(184.8806 15.73499 0 5.462044 0 0.7902015)
(184.8806 15.73499 0 5.462044 0 0.7902015)
(177.081 15.48913 0 5.831863 0 0.7984762)
(177.081 15.48913 0 5.831863 0 0.7984762)
(169.1187 15.15993 0 6.177526 0 0.8069587)
(169.1187 15.15993 0 6.177525 0 0.8069587)
(160.9997 14.75133 0 6.491195 0 0.815651)
(160.9997 14.75133 0 6.491195 0 0.815651)
(152.7319 14.26829 0 6.765243 0 0.8245528)
(152.7319 14.26829 0 6.765242 0 0.8245528)
(144.3254 13.71658 0 6.992448 0 0.833661)
(144.3254 13.71658 0 6.992448 0 0.833661)
(135.7929 13.10265 0 7.166215 0 0.8429686)
(135.7929 13.10265 0 7.166214 0 0.8429686)
(127.1516 12.43359 0 7.280809 0 0.8524629)
(127.1516 12.43359 0 7.280808 0 0.852463)
(118.4236 11.717 0 7.331552 0 0.8621246)
(118.4236 11.717 0 7.331551 0 0.8621246)
(109.6378 10.961 0 7.315056 0 0.8719253)
(109.6377 10.961 0 7.315054 0 0.8719253)
(100.8313 10.17434 0 7.229507 0 0.8818256)
(100.8312 10.17433 0 7.229505 0 0.8818256)
(92.052 9.366454 0 7.075004 0 0.8917722)
(92.05197 9.366452 0 7.075002 0 0.8917722)
(83.36028 8.547654 0 6.853922 0 0.9016954)
(83.36025 8.547652 0 6.85392 0 0.9016955)
(74.8305 7.729189 0 6.571279 0 0.9115071)
(74.83047 7.729186 0 6.571276 0 0.9115071)
(66.55122 6.923246 0 6.235008 0 0.9211001)
(66.55119 6.923243 0 6.235006 0 0.9211001)
(58.62286 6.142703 0 5.856021 0 0.9303509)
(58.62283 6.1427 0 5.856019 0 0.9303509)
(51.15166 5.400535 0 5.447852 0 0.9391267)
(51.15163 5.400532 0 5.447849 0 0.9391268)
(44.23953 4.708824 0 5.025761 0 0.9472975)
(44.2395 4.708822 0 5.025759 0 0.9472975)
(37.97082 4.077488 0 4.605268 0 0.954752)
(37.97079 4.077486 0 4.605266 0 0.954752)
(32.39945 3.513057 0 4.200381 0 0.9614143)
(32.39942 3.513055 0 4.200379 0 0.9614144)
(27.5408 3.01793 0 3.822005 0 0.9672545)
(27.54078 3.017928 0 3.822003 0 0.9672545)
(23.37163 2.590428 0 3.477051 0 0.9722899)
(23.37162 2.590427 0 3.47705 0 0.9722899)
(19.83779 2.225621 0 3.168458 0 0.9765767)
(19.83778 2.22562 0 3.168457 0 0.9765767)
(16.86643 1.91658 0 2.895955 0 0.9801959)
(16.86642 1.916579 0 2.895954 0 0.9801959)
(14.37808 1.655615 0 2.657158 0 0.9832385)
(14.37808 1.655615 0 2.657157 0 0.9832385)
(12.29585 1.435211 0 2.448594 0 0.985794)
(12.29584 1.435211 0 2.448593 0 0.985794)
(10.5506 1.248568 0 2.266456 0 0.9879437)
(10.5506 1.248568 0 2.266456 0 0.9879437)
(9.083146 1.089827 0 2.107069 0 0.989758)
(9.083144 1.089827 0 2.107069 0 0.989758)
(7.844241 0.9540927 0 1.967114 0 0.9912954)
(7.844239 0.9540926 0 1.967114 0 0.9912954)
(6.793681 0.8373458 0 1.843712 0 0.9926042)
(6.79368 0.8373458 0 1.843711 0 0.9926042)
(5.898961 0.7363219 0 1.734421 0 0.9937233)
(5.89896 0.7363219 0 1.734421 0 0.9937233)
(5.134095 0.6483993 0 1.637236 0 0.9946841)
(5.134095 0.6483992 0 1.637236 0 0.9946841)
(4.478101 0.5714547 0 1.550472 0 0.9955119)
(4.4781 0.5714547 0 1.550472 0 0.9955119)
(3.912965 0.5036573 0 1.47253 0 0.9962285)
(3.912965 0.5036573 0 1.47253 0 0.9962285)
(3.42453 0.4435027 0 1.402378 0 0.9968508)
(3.42453 0.4435027 0 1.402378 0 0.9968508)
(3.001367 0.3896978 0 1.339331 0 0.9973925)
(3.001367 0.3896978 0 1.339331 0 0.9973925)
(2.633693 0.3411054 0 1.282657 0 0.9978653)
(2.633693 0.3411054 0 1.282657 0 0.9978653)
(2.313976 0.2968199 0 1.231776 0 0.9982781)
(2.313976 0.2968199 0 1.231776 0 0.9982781)
(2.036695 0.2561441 0 1.186304 0 0.9986377)
(2.036695 0.2561441 0 1.186304 0 0.9986377)
(1.797373 0.2185156 0 1.145878 0 0.9989493)
(1.797373 0.2185156 0 1.145878 0 0.9989493)
(1.593949 0.1835875 0 1.110631 0 0.9992151)
(1.59395 0.1835875 0 1.110631 0 0.9992151)
(1.420646 0.1508692 0 1.079449 0 0.9994428)
(1.420646 0.1508692 0 1.079449 0 0.9994428)
(1.286741 0.1206243 0 1.055703 0 0.9996186)
(1.286741 0.1206243 0 1.055703 0 0.9996186)
(1.155342 0.09127633 0 1.028439 0 0.9997948)
(1.155342 0.09127633 0 1.028439 0 0.9997948)
(1.136622 0.06577161 0 1.032768 0 0.9998119)
(1.136622 0.06577161 0 1.032768 0 0.9998119)
(0.9532778 0.03749135 0 0.9811717 0 0.9999993)
(0.9532778 0.03749136 0 0.9811717 0 0.9999993)
(1.048566 0.01309112 0 1.015096 0 0.9999293)
(1.048566 0.01309114 0 1.015096 0 0.9999293)
)
;

boundaryField
{
    leftandright
    {
        type            cyclic;
        value           nonuniform List<symmTensor> 
150
(
(335.1462 10.27771 0 0.6300042 0 0.629103)
(334.8531 10.27765 0 0.6305452 0 0.6294204)
(334.2689 10.27973 0 0.6318666 0 0.6301015)
(333.3051 10.28497 0 0.6344353 0 0.6312166)
(331.8366 10.29504 0 0.6390003 0 0.6328529)
(329.7734 10.31433 0 0.6466131 0 0.6350881)
(327.1108 10.35097 0 0.6585556 0 0.6379697)
(323.9013 10.41622 0 0.6763329 0 0.6415336)
(320.0549 10.52 0 0.7019794 0 0.6458753)
(315.2063 10.66484 0 0.7389758 0 0.6511681)
(309.2264 10.85324 0 0.7917241 0 0.6574688)
(302.3933 11.09054 0 0.8610012 0 0.6645873)
(295.279 11.38245 0 0.9481033 0 0.6721428)
(288.1561 11.72509 0 1.054702 0 0.679831)
(281.1424 12.11102 0 1.182719 0 0.6874669)
(274.2779 12.53112 0 1.334178 0 0.6949606)
(267.5598 12.97494 0 1.511022 0 0.7022858)
(260.9604 13.4307 0 1.7149 0 0.709456)
(254.4374 13.88551 0 1.946971 0 0.7165082)
(247.9421 14.32574 0 2.207715 0 0.7234917)
(241.4258 14.73761 0 2.496774 0 0.7304593)
(234.8444 15.10783 0 2.812836 0 0.7374612)
(228.1617 15.42418 0 3.153566 0 0.7445416)
(221.3497 15.67599 0 3.515593 0 0.7517367)
(214.3885 15.85453 0 3.894541 0 0.7590748)
(207.2658 15.95315 0 4.285105 0 0.766577)
(199.9747 15.96738 0 4.681164 0 0.7742587)
(192.5128 15.89482 0 5.075919 0 0.7821309)
(184.8806 15.73499 0 5.462044 0 0.7902015)
(177.081 15.48913 0 5.831863 0 0.7984762)
(169.1187 15.15993 0 6.177526 0 0.8069587)
(160.9997 14.75133 0 6.491195 0 0.815651)
(152.7319 14.26829 0 6.765242 0 0.8245528)
(144.3254 13.71658 0 6.992448 0 0.833661)
(135.7929 13.10265 0 7.166215 0 0.8429686)
(127.1516 12.43359 0 7.280809 0 0.8524629)
(118.4236 11.717 0 7.331552 0 0.8621246)
(109.6377 10.961 0 7.315055 0 0.8719253)
(100.8313 10.17434 0 7.229506 0 0.8818256)
(92.05199 9.366453 0 7.075003 0 0.8917722)
(83.36026 8.547653 0 6.853921 0 0.9016954)
(74.83048 7.729188 0 6.571277 0 0.9115071)
(66.55121 6.923244 0 6.235007 0 0.9211001)
(58.62285 6.142701 0 5.85602 0 0.9303509)
(51.15165 5.400533 0 5.44785 0 0.9391268)
(44.23952 4.708823 0 5.02576 0 0.9472975)
(37.9708 4.077487 0 4.605267 0 0.954752)
(32.39943 3.513056 0 4.20038 0 0.9614143)
(27.54079 3.017929 0 3.822004 0 0.9672545)
(23.37162 2.590427 0 3.477051 0 0.9722899)
(19.83779 2.225621 0 3.168457 0 0.9765767)
(16.86643 1.91658 0 2.895955 0 0.9801959)
(14.37808 1.655615 0 2.657158 0 0.9832385)
(12.29584 1.435211 0 2.448593 0 0.985794)
(10.5506 1.248568 0 2.266456 0 0.9879437)
(9.083145 1.089827 0 2.107069 0 0.989758)
(7.84424 0.9540926 0 1.967114 0 0.9912954)
(6.79368 0.8373458 0 1.843711 0 0.9926042)
(5.89896 0.7363219 0 1.734421 0 0.9937233)
(5.134095 0.6483993 0 1.637236 0 0.9946841)
(4.4781 0.5714547 0 1.550472 0 0.9955119)
(3.912965 0.5036573 0 1.47253 0 0.9962285)
(3.42453 0.4435027 0 1.402378 0 0.9968508)
(3.001367 0.3896978 0 1.339331 0 0.9973925)
(2.633693 0.3411054 0 1.282657 0 0.9978653)
(2.313976 0.2968199 0 1.231776 0 0.9982781)
(2.036695 0.2561441 0 1.186304 0 0.9986377)
(1.797373 0.2185156 0 1.145878 0 0.9989493)
(1.593949 0.1835875 0 1.110631 0 0.9992151)
(1.420646 0.1508692 0 1.079449 0 0.9994428)
(1.286741 0.1206243 0 1.055703 0 0.9996186)
(1.155342 0.09127633 0 1.028439 0 0.9997948)
(1.136622 0.06577161 0 1.032768 0 0.9998119)
(0.9532778 0.03749136 0 0.9811717 0 0.9999993)
(1.048566 0.01309113 0 1.015096 0 0.9999293)
(335.1462 10.27771 0 0.6300042 0 0.629103)
(334.8531 10.27765 0 0.6305452 0 0.6294204)
(334.2689 10.27973 0 0.6318666 0 0.6301015)
(333.3051 10.28497 0 0.6344353 0 0.6312166)
(331.8366 10.29504 0 0.6390003 0 0.6328529)
(329.7734 10.31433 0 0.6466131 0 0.6350881)
(327.1108 10.35097 0 0.6585556 0 0.6379697)
(323.9013 10.41622 0 0.6763329 0 0.6415336)
(320.0549 10.52 0 0.7019794 0 0.6458753)
(315.2063 10.66484 0 0.7389758 0 0.6511681)
(309.2264 10.85324 0 0.7917241 0 0.6574688)
(302.3933 11.09054 0 0.8610012 0 0.6645873)
(295.279 11.38245 0 0.9481033 0 0.6721428)
(288.1561 11.72509 0 1.054702 0 0.679831)
(281.1424 12.11102 0 1.182719 0 0.6874669)
(274.2779 12.53112 0 1.334178 0 0.6949606)
(267.5598 12.97494 0 1.511022 0 0.7022858)
(260.9604 13.4307 0 1.7149 0 0.709456)
(254.4374 13.88551 0 1.946971 0 0.7165082)
(247.9421 14.32574 0 2.207715 0 0.7234917)
(241.4258 14.73761 0 2.496774 0 0.7304593)
(234.8444 15.10783 0 2.812836 0 0.7374612)
(228.1617 15.42418 0 3.153566 0 0.7445416)
(221.3497 15.67599 0 3.515593 0 0.7517367)
(214.3885 15.85453 0 3.894541 0 0.7590748)
(207.2658 15.95315 0 4.285105 0 0.766577)
(199.9747 15.96738 0 4.681164 0 0.7742587)
(192.5128 15.89482 0 5.075919 0 0.7821309)
(184.8806 15.73499 0 5.462044 0 0.7902015)
(177.081 15.48913 0 5.831863 0 0.7984762)
(169.1187 15.15993 0 6.177526 0 0.8069587)
(160.9997 14.75133 0 6.491195 0 0.815651)
(152.7319 14.26829 0 6.765242 0 0.8245528)
(144.3254 13.71658 0 6.992448 0 0.833661)
(135.7929 13.10265 0 7.166215 0 0.8429686)
(127.1516 12.43359 0 7.280809 0 0.8524629)
(118.4236 11.717 0 7.331552 0 0.8621246)
(109.6377 10.961 0 7.315055 0 0.8719253)
(100.8313 10.17434 0 7.229506 0 0.8818256)
(92.05199 9.366453 0 7.075003 0 0.8917722)
(83.36026 8.547653 0 6.853921 0 0.9016954)
(74.83048 7.729188 0 6.571277 0 0.9115071)
(66.55121 6.923244 0 6.235007 0 0.9211001)
(58.62285 6.142701 0 5.85602 0 0.9303509)
(51.15165 5.400533 0 5.44785 0 0.9391268)
(44.23952 4.708823 0 5.02576 0 0.9472975)
(37.9708 4.077487 0 4.605267 0 0.954752)
(32.39943 3.513056 0 4.20038 0 0.9614143)
(27.54079 3.017929 0 3.822004 0 0.9672545)
(23.37162 2.590427 0 3.477051 0 0.9722899)
(19.83779 2.225621 0 3.168457 0 0.9765767)
(16.86643 1.91658 0 2.895955 0 0.9801959)
(14.37808 1.655615 0 2.657158 0 0.9832385)
(12.29584 1.435211 0 2.448593 0 0.985794)
(10.5506 1.248568 0 2.266456 0 0.9879437)
(9.083145 1.089827 0 2.107069 0 0.989758)
(7.84424 0.9540926 0 1.967114 0 0.9912954)
(6.79368 0.8373458 0 1.843711 0 0.9926042)
(5.89896 0.7363219 0 1.734421 0 0.9937233)
(5.134095 0.6483993 0 1.637236 0 0.9946841)
(4.4781 0.5714547 0 1.550472 0 0.9955119)
(3.912965 0.5036573 0 1.47253 0 0.9962285)
(3.42453 0.4435027 0 1.402378 0 0.9968508)
(3.001367 0.3896978 0 1.339331 0 0.9973925)
(2.633693 0.3411054 0 1.282657 0 0.9978653)
(2.313976 0.2968199 0 1.231776 0 0.9982781)
(2.036695 0.2561441 0 1.186304 0 0.9986377)
(1.797373 0.2185156 0 1.145878 0 0.9989493)
(1.593949 0.1835875 0 1.110631 0 0.9992151)
(1.420646 0.1508692 0 1.079449 0 0.9994428)
(1.286741 0.1206243 0 1.055703 0 0.9996186)
(1.155342 0.09127633 0 1.028439 0 0.9997948)
(1.136622 0.06577161 0 1.032768 0 0.9998119)
(0.9532778 0.03749136 0 0.9811717 0 0.9999993)
(1.048566 0.01309113 0 1.015096 0 0.9999293)
)
;
    }
    wall
    {
        type            zeroGradient;
    }
    frontAndBack
    {
        type            empty;
    }
    middle
    {
        type            symmetryPlane;
        value           nonuniform List<symmTensor> 2((1.048566 0 0 1.015096 0 0.9999293) (1.048566 0 0 1.015096 0 0.9999293));
    }
}


// ************************************************************************* //
