/*--------------------------------*- C++ -*----------------------------------*\
| =========                 |                                                 |
| \\      /  F ield         | foam-extend: Open Source CFD                    |
|  \\    /   O peration     | Version:     4.0                                |
|   \\  /    A nd           | Web:         http://www.foam-extend.org         |
|    \\/     M anipulation  |                                                 |
\*---------------------------------------------------------------------------*/
FoamFile
{
    version     2.0;
    format      ascii;
    class       volScalarField;
    location    "1000";
    object      Ceps1;
}
// * * * * * * * * * * * * * * * * * * * * * * * * * * * * * * * * * * * * * //

dimensions      [0 0 0 0 0 0 0];

internalField   nonuniform List<scalar> 
150
(
5.796033
5.796033
3.461437
3.461437
2.767226
2.767226
2.442895
2.442895
2.25709
2.25709
2.137464
2.137464
2.054199
2.054199
1.992756
1.992756
1.945224
1.945223
1.907078
1.907078
1.875523
1.875523
1.84833
1.84833
1.824123
1.824123
1.802117
1.802117
1.78186
1.78186
1.763077
1.763077
1.745598
1.745598
1.729301
1.729301
1.714097
1.714097
1.699913
1.699913
1.686683
1.686683
1.674347
1.674347
1.662849
1.662849
1.652136
1.652136
1.642155
1.642155
1.63286
1.63286
1.624202
1.624202
1.61614
1.61614
1.60863
1.60863
1.601635
1.601635
1.595118
1.595118
1.589045
1.589045
1.583383
1.583383
1.578103
1.578103
1.573176
1.573176
1.568575
1.568575
1.564275
1.564275
1.560252
1.560252
1.556486
1.556486
1.552955
1.552955
1.549641
1.549641
1.546527
1.546527
1.543596
1.543596
1.540833
1.540833
1.538224
1.538224
1.535756
1.535756
1.533417
1.533417
1.531195
1.531195
1.529081
1.529081
1.527066
1.527066
1.52514
1.52514
1.523298
1.523298
1.521532
1.521532
1.519837
1.519837
1.518208
1.518208
1.516642
1.516642
1.515135
1.515135
1.513687
1.513687
1.512299
1.512299
1.510976
1.510976
1.509727
1.509727
1.508569
1.508569
1.507502
1.507502
1.50651
1.50651
1.50558
1.50558
1.5047
1.5047
1.503863
1.503863
1.503065
1.503065
1.502307
1.502307
1.501595
1.501595
1.50094
1.50094
1.50036
1.50036
1.499881
1.499881
1.49953
1.49953
1.499337
1.499337
)
;

boundaryField
{
    leftandright
    {
        type            cyclic;
        value           nonuniform List<scalar> 
150
(
5.796033
3.461437
2.767226
2.442895
2.25709
2.137464
2.054199
1.992756
1.945224
1.907078
1.875523
1.84833
1.824123
1.802117
1.78186
1.763077
1.745598
1.729301
1.714097
1.699913
1.686683
1.674347
1.662849
1.652136
1.642155
1.63286
1.624202
1.61614
1.60863
1.601635
1.595118
1.589045
1.583383
1.578103
1.573176
1.568575
1.564275
1.560252
1.556486
1.552955
1.549641
1.546527
1.543596
1.540833
1.538224
1.535756
1.533417
1.531195
1.529081
1.527066
1.52514
1.523298
1.521532
1.519837
1.518208
1.516642
1.515135
1.513687
1.512299
1.510976
1.509727
1.508569
1.507502
1.50651
1.50558
1.5047
1.503863
1.503065
1.502307
1.501595
1.50094
1.50036
1.499881
1.49953
1.499337
5.796033
3.461437
2.767226
2.442895
2.25709
2.137464
2.054199
1.992756
1.945224
1.907078
1.875523
1.84833
1.824123
1.802117
1.78186
1.763077
1.745598
1.729301
1.714097
1.699913
1.686683
1.674347
1.662849
1.652136
1.642155
1.63286
1.624202
1.61614
1.60863
1.601635
1.595118
1.589045
1.583383
1.578103
1.573176
1.568575
1.564275
1.560252
1.556486
1.552955
1.549641
1.546527
1.543596
1.540833
1.538224
1.535756
1.533417
1.531195
1.529081
1.527066
1.52514
1.523298
1.521532
1.519837
1.518208
1.516642
1.515135
1.513687
1.512299
1.510976
1.509727
1.508569
1.507502
1.50651
1.50558
1.5047
1.503863
1.503065
1.502307
1.501595
1.50094
1.50036
1.499881
1.49953
1.499337
)
;
    }
    wall
    {
        type            calculated;
        value           uniform 1.463;
    }
    frontAndBack
    {
        type            empty;
    }
    middle
    {
        type            symmetryPlane;
        value           nonuniform List<scalar> 2(1.499337 1.499337);
    }
}


// ************************************************************************* //
