/*--------------------------------*- C++ -*----------------------------------*\
| =========                 |                                                 |
| \\      /  F ield         | foam-extend: Open Source CFD                    |
|  \\    /   O peration     | Version:     4.0                                |
|   \\  /    A nd           | Web:         http://www.foam-extend.org         |
|    \\/     M anipulation  |                                                 |
\*---------------------------------------------------------------------------*/
FoamFile
{
    version     2.0;
    format      ascii;
    class       volSymmTensorField;
    location    "1000";
    object      DiffC;
}
// * * * * * * * * * * * * * * * * * * * * * * * * * * * * * * * * * * * * * //

dimensions      [0 0 -1 0 0 0 0];

internalField   nonuniform List<symmTensor> 
150
(
(-18.42665 -0.003758255 0 0.03401254 0 0.0199585)
(-18.42665 -0.003757682 0 0.03401256 0 0.01995846)
(-15.71588 0.1221619 0 0.04284365 0 0.01977369)
(-15.71588 0.1221619 0 0.04284368 0 0.0197737)
(-18.01678 0.1570974 0 0.06076529 0 0.02055871)
(-18.01677 0.1570971 0 0.06076528 0 0.02055873)
(-21.23038 0.2125398 0 0.08695385 0 0.02164426)
(-21.23038 0.2125396 0 0.08695384 0 0.02164427)
(-21.92707 0.3676857 0 0.1187645 0 0.02174357)
(-21.92707 0.3676857 0 0.1187645 0 0.02174358)
(-18.86975 0.6247879 0 0.1505022 0 0.02032616)
(-18.86975 0.624788 0 0.1505022 0 0.02032616)
(-14.19897 0.9241646 0 0.1806058 0 0.01849438)
(-14.19897 0.9241647 0 0.1806058 0 0.01849438)
(-14.79423 1.101471 0 0.2177895 0 0.01863549)
(-14.79423 1.101471 0 0.2177895 0 0.01863549)
(-22.81595 1.01256 0 0.2843041 0 0.02065148)
(-22.81595 1.01256 0 0.2843042 0 0.02065148)
(-22.64476 0.9267622 0 0.3552956 0 0.01889956)
(-22.64476 0.9267624 0 0.3552956 0 0.01889956)
(-12.70486 0.9109906 0 0.3209248 0 0.01150277)
(-12.70486 0.9109907 0 0.3209248 0 0.01150277)
(1.428822 0.8920329 0 0.299947 0 0.001536874)
(1.428821 0.892033 0 0.299947 0 0.001536875)
(6.749463 0.6807822 0 0.2859452 0 -0.004819203)
(6.749461 0.6807822 0 0.2859453 0 -0.004819202)
(8.142298 0.4432879 0 0.274714 0 -0.007659002)
(8.142296 0.4432878 0 0.274714 0 -0.007659001)
(7.902512 0.2249511 0 0.2631396 0 -0.008290614)
(7.90251 0.2249511 0 0.2631396 0 -0.008290612)
(7.009253 0.03166901 0 0.248629 0 -0.007773591)
(7.009251 0.03166888 0 0.248629 0 -0.00777359)
(5.89472 -0.1369735 0 0.2295452 0 -0.006753864)
(5.894718 -0.1369736 0 0.2295452 0 -0.006753863)
(4.776441 -0.2800153 0 0.2051885 0 -0.005592478)
(4.776439 -0.2800155 0 0.2051885 0 -0.005592477)
(3.772873 -0.3952936 0 0.1756701 0 -0.004484497)
(3.772871 -0.3952939 0 0.1756701 0 -0.004484497)
(2.941132 -0.4810042 0 0.1417539 0 -0.00352681)
(2.94113 -0.4810044 0 0.1417538 0 -0.00352681)
(2.295194 -0.5367768 0 0.1046794 0 -0.002754735)
(2.295192 -0.536777 0 0.1046794 0 -0.002754736)
(1.820742 -0.564061 0 0.06596613 0 -0.002165153)
(1.820741 -0.5640612 0 0.06596608 0 -0.002165154)
(1.488385 -0.565976 0 0.02721694 0 -0.001733574)
(1.488385 -0.5659761 0 0.02721688 0 -0.001733575)
(1.264043 -0.546836 0 -0.01005273 0 -0.001426893)
(1.264043 -0.5468361 0 -0.01005279 0 -0.001426894)
(1.115815 -0.5115529 0 -0.04454072 0 -0.001212009)
(1.115815 -0.511553 0 -0.04454078 0 -0.00121201)
(1.017533 -0.4650704 0 -0.075232 0 -0.001060654)
(1.017533 -0.4650705 0 -0.07523206 0 -0.001060656)
(0.9498195 -0.4119243 0 -0.1014243 0 -0.0009512498)
(0.9498206 -0.4119243 0 -0.1014244 0 -0.0009512512)
(0.899594 -0.355966 0 -0.1227165 0 -0.0008688055)
(0.8995953 -0.3559659 0 -0.1227165 0 -0.000868807)
(0.8588417 -0.3002375 0 -0.1389727 0 -0.0008038092)
(0.8588431 -0.3002374 0 -0.1389728 0 -0.0008038108)
(0.8232171 -0.2469672 0 -0.1502741 0 -0.0007507909)
(0.8232187 -0.2469671 0 -0.1502741 0 -0.0007507927)
(0.7907919 -0.1976443 0 -0.1568676 0 -0.0007069747)
(0.7907937 -0.1976442 0 -0.1568676 0 -0.0007069767)
(0.7610778 -0.153136 0 -0.1591176 0 -0.0006712069)
(0.7610798 -0.1531359 0 -0.1591176 0 -0.0006712092)
(0.7343656 -0.1138163 0 -0.1574631 0 -0.0006432365)
(0.7343679 -0.1138161 0 -0.1574631 0 -0.0006432396)
(0.7115157 -0.07966097 0 -0.1523635 0 -0.000623445)
(0.7115183 -0.07966077 0 -0.1523634 0 -0.0006234488)
(0.6938003 -0.05036352 0 -0.1442709 0 -0.0006125571)
(0.6938028 -0.05036331 0 -0.1442708 0 -0.0006125604)
(0.6811911 -0.02558817 0 -0.1337544 0 -0.0006101253)
(0.6811931 -0.02558796 0 -0.1337543 0 -0.0006101273)
(0.674236 -0.004818381 0 -0.1212804 0 -0.0006161832)
(0.6742382 -0.004818145 0 -0.1212803 0 -0.0006161852)
(0.6734972 0.01253241 0 -0.1072181 0 -0.0006308978)
(0.6735008 0.01253275 0 -0.1072179 0 -0.0006309024)
(0.6791132 0.02701923 0 -0.09188295 0 -0.0006540646)
(0.6791209 0.02701974 0 -0.09188266 0 -0.0006540781)
(0.6906035 0.03911663 0 -0.07556642 0 -0.0006848129)
(0.6906087 0.0391171 0 -0.07556613 0 -0.0006848199)
(0.706552 0.04916942 0 -0.05858256 0 -0.0007212014)
(0.706557 0.04916987 0 -0.05858225 0 -0.0007212081)
(0.7242046 0.05734287 0 -0.04133278 0 -0.0007597239)
(0.7242108 0.0573434 0 -0.04133239 0 -0.000759733)
(0.7391359 0.06358696 0 -0.02437696 0 -0.0007948726)
(0.7391423 0.06358751 0 -0.02437652 0 -0.0007948817)
(0.7453213 0.06764455 0 -0.00847865 0 -0.0008191717)
(0.7453274 0.06764508 0 -0.008478191 0 -0.0008191805)
(0.7360272 0.06914213 0 0.005429436 0 -0.0008241936)
(0.7360335 0.06914266 0 0.005429922 0 -0.0008242027)
(0.7056783 0.06777739 0 0.01640602 0 -0.0008027644)
(0.7056818 0.06777773 0 0.01640635 0 -0.0008027693)
(0.6521964 0.06355263 0 0.02377283 0 -0.0007518115)
(0.6521997 0.06355293 0 0.02377314 0 -0.000751816)
(0.5785581 0.05693001 0 0.0273803 0 -0.0006743696)
(0.5785626 0.05693037 0 0.02738068 0 -0.0006743766)
(0.4923269 0.04878724 0 0.02769874 0 -0.0005792145)
(0.4923287 0.04878741 0 0.02769893 0 -0.000579217)
(0.4031401 0.04017282 0 0.0256545 0 -0.0004779731)
(0.4031421 0.04017299 0 0.0256547 0 -0.0004779762)
(0.3195835 0.03200242 0 0.0223051 0 -0.0003813465)
(0.3195845 0.03200252 0 0.02230522 0 -0.0003813479)
(0.2471396 0.02486307 0 0.01854214 0 -0.0002964743)
(0.2471408 0.02486316 0 0.01854226 0 -0.0002964762)
(0.1878918 0.01898989 0 0.01495192 0 -0.0002264051)
(0.1878922 0.01898992 0 0.01495197 0 -0.0002264055)
(0.141404 0.01435847 0 0.01182681 0 -0.0001710373)
(0.1414051 0.01435856 0 0.01182692 0 -0.0001710392)
(0.1059251 0.01080712 0 0.009253547 0 -0.0001285537)
(0.105925 0.01080712 0 0.009253552 0 -0.0001285534)
(0.07930254 0.008129901 0 0.00720474 0 -9.653826e-05)
(0.07930269 0.008129914 0 0.007204759 0 -9.653847e-05)
(0.05950812 0.006130146 0 0.005605432 0 -7.265012e-05)
(0.05950833 0.006130163 0 0.005605455 0 -7.265045e-05)
(0.04484449 0.004642066 0 0.00437005 0 -5.490048e-05)
(0.0448446 0.004642075 0 0.004370063 0 -5.490064e-05)
(0.0340125 0.003538069 0 0.003427121 0 -4.175597e-05)
(0.03401259 0.003538076 0 0.003427131 0 -4.175612e-05)
(0.02594235 0.002712676 0 0.002697874 0 -3.193405e-05)
(0.02594242 0.002712681 0 0.002697881 0 -3.193415e-05)
(0.01973938 0.002075679 0 0.002103754 0 -2.435493e-05)
(0.01973941 0.002075681 0 0.002103757 0 -2.435497e-05)
(0.01516551 0.001595476 0 0.001691143 0 -1.879165e-05)
(0.01516554 0.001595477 0 0.001691145 0 -1.879168e-05)
(0.01173124 0.001225203 0 0.001389761 0 -1.462386e-05)
(0.01173125 0.001225204 0 0.001389762 0 -1.462385e-05)
(0.009074188 0.0009369405 0 0.00112918 0 -1.137206e-05)
(0.009074192 0.0009369405 0 0.00112918 0 -1.137205e-05)
(0.007108887 0.0007232157 0 0.0009254095 0 -8.953664e-06)
(0.007108886 0.0007232152 0 0.0009254089 0 -8.953646e-06)
(0.005666043 0.0005661503 0 0.0007721061 0 -7.173583e-06)
(0.005666038 0.0005661495 0 0.0007721052 0 -7.173556e-06)
(0.004548301 0.0004472636 0 0.0006429819 0 -5.784713e-06)
(0.004548291 0.0004472626 0 0.0006429806 0 -5.784709e-06)
(0.003800939 0.0003651366 0 0.0005722674 0 -4.869338e-06)
(0.003800927 0.0003651355 0 0.0005722661 0 -4.869477e-06)
(0.002895998 0.0002855524 0 0.0004192097 0 -3.699255e-06)
(0.002895989 0.0002855515 0 0.0004192086 0 -3.699655e-06)
(0.003121909 0.0002681997 0 0.0005842436 0 -4.109956e-06)
(0.003121909 0.000268199 0 0.000584243 0 -4.110792e-06)
(0.0005475425 0.0001430402 0 -0.0001349369 0 -5.046891e-07)
(0.0005475527 0.00014304 0 -0.0001349369 0 -5.05658e-07)
(0.006327674 0.0002831886 0 0.001748205 0 -8.906905e-06)
(0.006327681 0.0002831884 0 0.001748205 0 -8.905816e-06)
(-0.007850969 -7.060679e-05 0 -0.002693283 0 8.123919e-06)
(-0.007850976 -7.060649e-05 0 -0.002693283 0 8.127251e-06)
(0.01250441 0.0002312222 0 0.00382759 0 -1.158823e-05)
(0.01250441 0.0002312193 0 0.003827589 0 -1.158991e-05)
(-0.003936013 -4.73122e-05 0 -0.001401291 0 2.88955e-06)
(-0.003936012 -4.731543e-05 0 -0.001401291 0 2.890627e-06)
)
;

boundaryField
{
    leftandright
    {
        type            cyclic;
        value           nonuniform List<symmTensor> 
150
(
(-18.42665 -0.003757969 0 0.03401255 0 0.01995848)
(-15.71588 0.1221619 0 0.04284367 0 0.0197737)
(-18.01677 0.1570973 0 0.06076528 0 0.02055872)
(-21.23038 0.2125397 0 0.08695385 0 0.02164427)
(-21.92707 0.3676857 0 0.1187645 0 0.02174357)
(-18.86975 0.624788 0 0.1505022 0 0.02032616)
(-14.19897 0.9241646 0 0.1806058 0 0.01849438)
(-14.79423 1.101471 0 0.2177895 0 0.01863549)
(-22.81595 1.01256 0 0.2843042 0 0.02065148)
(-22.64476 0.9267623 0 0.3552956 0 0.01889956)
(-12.70486 0.9109906 0 0.3209248 0 0.01150277)
(1.428821 0.892033 0 0.299947 0 0.001536875)
(6.749462 0.6807822 0 0.2859453 0 -0.004819203)
(8.142297 0.4432879 0 0.274714 0 -0.007659001)
(7.902511 0.2249511 0 0.2631396 0 -0.008290613)
(7.009252 0.03166895 0 0.248629 0 -0.00777359)
(5.894719 -0.1369735 0 0.2295452 0 -0.006753863)
(4.77644 -0.2800154 0 0.2051885 0 -0.005592477)
(3.772872 -0.3952938 0 0.1756701 0 -0.004484497)
(2.941131 -0.4810043 0 0.1417539 0 -0.00352681)
(2.295193 -0.5367769 0 0.1046794 0 -0.002754735)
(1.820742 -0.5640611 0 0.06596611 0 -0.002165153)
(1.488385 -0.565976 0 0.02721691 0 -0.001733574)
(1.264043 -0.546836 0 -0.01005276 0 -0.001426893)
(1.115815 -0.511553 0 -0.04454075 0 -0.00121201)
(1.017533 -0.4650704 0 -0.07523203 0 -0.001060655)
(0.94982 -0.4119243 0 -0.1014243 0 -0.0009512505)
(0.8995947 -0.355966 0 -0.1227165 0 -0.0008688062)
(0.8588424 -0.3002374 0 -0.1389727 0 -0.00080381)
(0.8232179 -0.2469672 0 -0.1502741 0 -0.0007507918)
(0.7907928 -0.1976443 0 -0.1568676 0 -0.0007069757)
(0.7610788 -0.1531359 0 -0.1591176 0 -0.000671208)
(0.7343668 -0.1138162 0 -0.1574631 0 -0.0006432381)
(0.711517 -0.07966087 0 -0.1523635 0 -0.0006234469)
(0.6938016 -0.05036341 0 -0.1442708 0 -0.0006125588)
(0.6811921 -0.02558806 0 -0.1337544 0 -0.0006101263)
(0.6742371 -0.004818263 0 -0.1212803 0 -0.0006161842)
(0.673499 0.01253258 0 -0.107218 0 -0.0006309001)
(0.679117 0.02701948 0 -0.09188281 0 -0.0006540713)
(0.6906061 0.03911686 0 -0.07556627 0 -0.0006848164)
(0.7065545 0.04916964 0 -0.0585824 0 -0.0007212047)
(0.7242077 0.05734313 0 -0.04133258 0 -0.0007597285)
(0.7391391 0.06358723 0 -0.02437674 0 -0.0007948771)
(0.7453243 0.06764481 0 -0.008478421 0 -0.0008191761)
(0.7360304 0.06914239 0 0.005429679 0 -0.0008241981)
(0.70568 0.06777756 0 0.01640619 0 -0.0008027669)
(0.652198 0.06355278 0 0.02377299 0 -0.0007518138)
(0.5785603 0.05693019 0 0.02738049 0 -0.0006743731)
(0.4923278 0.04878732 0 0.02769883 0 -0.0005792157)
(0.4031411 0.04017291 0 0.0256546 0 -0.0004779747)
(0.319584 0.03200247 0 0.02230516 0 -0.0003813472)
(0.2471402 0.02486311 0 0.0185422 0 -0.0002964752)
(0.187892 0.01898991 0 0.01495195 0 -0.0002264053)
(0.1414045 0.01435851 0 0.01182686 0 -0.0001710383)
(0.1059251 0.01080712 0 0.009253549 0 -0.0001285536)
(0.07930262 0.008129908 0 0.00720475 0 -9.653836e-05)
(0.05950823 0.006130155 0 0.005605444 0 -7.265029e-05)
(0.04484454 0.00464207 0 0.004370056 0 -5.490056e-05)
(0.03401254 0.003538073 0 0.003427126 0 -4.175604e-05)
(0.02594238 0.002712679 0 0.002697878 0 -3.19341e-05)
(0.01973939 0.00207568 0 0.002103755 0 -2.435495e-05)
(0.01516553 0.001595476 0 0.001691144 0 -1.879167e-05)
(0.01173124 0.001225203 0 0.001389762 0 -1.462386e-05)
(0.00907419 0.0009369405 0 0.00112918 0 -1.137205e-05)
(0.007108886 0.0007232154 0 0.0009254092 0 -8.953655e-06)
(0.005666041 0.0005661499 0 0.0007721056 0 -7.17357e-06)
(0.004548296 0.0004472631 0 0.0006429812 0 -5.784711e-06)
(0.003800933 0.000365136 0 0.0005722668 0 -4.869408e-06)
(0.002895993 0.000285552 0 0.0004192092 0 -3.699455e-06)
(0.003121909 0.0002681994 0 0.0005842433 0 -4.110374e-06)
(0.0005475476 0.0001430401 0 -0.0001349369 0 -5.051735e-07)
(0.006327678 0.0002831885 0 0.001748205 0 -8.90636e-06)
(-0.007850972 -7.060664e-05 0 -0.002693283 0 8.125585e-06)
(0.01250441 0.0002312207 0 0.003827589 0 -1.158907e-05)
(-0.003936012 -4.731382e-05 0 -0.001401291 0 2.890089e-06)
(-18.42665 -0.003757969 0 0.03401255 0 0.01995848)
(-15.71588 0.1221619 0 0.04284367 0 0.0197737)
(-18.01677 0.1570973 0 0.06076528 0 0.02055872)
(-21.23038 0.2125397 0 0.08695385 0 0.02164427)
(-21.92707 0.3676857 0 0.1187645 0 0.02174357)
(-18.86975 0.624788 0 0.1505022 0 0.02032616)
(-14.19897 0.9241646 0 0.1806058 0 0.01849438)
(-14.79423 1.101471 0 0.2177895 0 0.01863549)
(-22.81595 1.01256 0 0.2843042 0 0.02065148)
(-22.64476 0.9267623 0 0.3552956 0 0.01889956)
(-12.70486 0.9109906 0 0.3209248 0 0.01150277)
(1.428821 0.892033 0 0.299947 0 0.001536875)
(6.749462 0.6807822 0 0.2859453 0 -0.004819203)
(8.142297 0.4432879 0 0.274714 0 -0.007659001)
(7.902511 0.2249511 0 0.2631396 0 -0.008290613)
(7.009252 0.03166895 0 0.248629 0 -0.00777359)
(5.894719 -0.1369735 0 0.2295452 0 -0.006753863)
(4.77644 -0.2800154 0 0.2051885 0 -0.005592477)
(3.772872 -0.3952938 0 0.1756701 0 -0.004484497)
(2.941131 -0.4810043 0 0.1417539 0 -0.00352681)
(2.295193 -0.5367769 0 0.1046794 0 -0.002754735)
(1.820742 -0.5640611 0 0.06596611 0 -0.002165153)
(1.488385 -0.565976 0 0.02721691 0 -0.001733574)
(1.264043 -0.546836 0 -0.01005276 0 -0.001426893)
(1.115815 -0.511553 0 -0.04454075 0 -0.00121201)
(1.017533 -0.4650704 0 -0.07523203 0 -0.001060655)
(0.94982 -0.4119243 0 -0.1014243 0 -0.0009512505)
(0.8995947 -0.355966 0 -0.1227165 0 -0.0008688062)
(0.8588424 -0.3002374 0 -0.1389727 0 -0.00080381)
(0.8232179 -0.2469672 0 -0.1502741 0 -0.0007507918)
(0.7907928 -0.1976443 0 -0.1568676 0 -0.0007069757)
(0.7610788 -0.1531359 0 -0.1591176 0 -0.000671208)
(0.7343668 -0.1138162 0 -0.1574631 0 -0.0006432381)
(0.711517 -0.07966087 0 -0.1523635 0 -0.0006234469)
(0.6938016 -0.05036341 0 -0.1442708 0 -0.0006125588)
(0.6811921 -0.02558806 0 -0.1337544 0 -0.0006101263)
(0.6742371 -0.004818263 0 -0.1212803 0 -0.0006161842)
(0.673499 0.01253258 0 -0.107218 0 -0.0006309001)
(0.679117 0.02701948 0 -0.09188281 0 -0.0006540713)
(0.6906061 0.03911686 0 -0.07556627 0 -0.0006848164)
(0.7065545 0.04916964 0 -0.0585824 0 -0.0007212047)
(0.7242077 0.05734313 0 -0.04133258 0 -0.0007597285)
(0.7391391 0.06358723 0 -0.02437674 0 -0.0007948771)
(0.7453243 0.06764481 0 -0.008478421 0 -0.0008191761)
(0.7360304 0.06914239 0 0.005429679 0 -0.0008241981)
(0.70568 0.06777756 0 0.01640619 0 -0.0008027669)
(0.652198 0.06355278 0 0.02377299 0 -0.0007518138)
(0.5785603 0.05693019 0 0.02738049 0 -0.0006743731)
(0.4923278 0.04878732 0 0.02769883 0 -0.0005792157)
(0.4031411 0.04017291 0 0.0256546 0 -0.0004779747)
(0.319584 0.03200247 0 0.02230516 0 -0.0003813472)
(0.2471402 0.02486311 0 0.0185422 0 -0.0002964752)
(0.187892 0.01898991 0 0.01495195 0 -0.0002264053)
(0.1414045 0.01435851 0 0.01182686 0 -0.0001710383)
(0.1059251 0.01080712 0 0.009253549 0 -0.0001285536)
(0.07930262 0.008129908 0 0.00720475 0 -9.653836e-05)
(0.05950823 0.006130155 0 0.005605444 0 -7.265029e-05)
(0.04484454 0.00464207 0 0.004370056 0 -5.490056e-05)
(0.03401254 0.003538073 0 0.003427126 0 -4.175604e-05)
(0.02594238 0.002712679 0 0.002697878 0 -3.19341e-05)
(0.01973939 0.00207568 0 0.002103755 0 -2.435495e-05)
(0.01516553 0.001595476 0 0.001691144 0 -1.879167e-05)
(0.01173124 0.001225203 0 0.001389762 0 -1.462386e-05)
(0.00907419 0.0009369405 0 0.00112918 0 -1.137205e-05)
(0.007108886 0.0007232154 0 0.0009254092 0 -8.953655e-06)
(0.005666041 0.0005661499 0 0.0007721056 0 -7.17357e-06)
(0.004548296 0.0004472631 0 0.0006429812 0 -5.784711e-06)
(0.003800933 0.000365136 0 0.0005722668 0 -4.869408e-06)
(0.002895993 0.000285552 0 0.0004192092 0 -3.699455e-06)
(0.003121909 0.0002681994 0 0.0005842433 0 -4.110374e-06)
(0.0005475476 0.0001430401 0 -0.0001349369 0 -5.051735e-07)
(0.006327678 0.0002831885 0 0.001748205 0 -8.90636e-06)
(-0.007850972 -7.060664e-05 0 -0.002693283 0 8.125585e-06)
(0.01250441 0.0002312207 0 0.003827589 0 -1.158907e-05)
(-0.003936012 -4.731382e-05 0 -0.001401291 0 2.890089e-06)
)
;
    }
    wall
    {
        type            calculated;
        value           nonuniform List<symmTensor> 2((-18.42665 -0.003758255 0 0.03401254 0 0.0199585) (-18.42665 -0.003757682 0 0.03401256 0 0.01995846));
    }
    frontAndBack
    {
        type            empty;
    }
    middle
    {
        type            symmetryPlane;
        value           nonuniform List<symmTensor> 2((-0.003936013 0 0 -0.001401291 0 2.88955e-06) (-0.003936012 0 0 -0.001401291 0 2.890627e-06));
    }
}


// ************************************************************************* //
