/*--------------------------------*- C++ -*----------------------------------*\
| =========                 |                                                 |
| \\      /  F ield         | foam-extend: Open Source CFD                    |
|  \\    /   O peration     | Version:     4.0                                |
|   \\  /    A nd           | Web:         http://www.foam-extend.org         |
|    \\/     M anipulation  |                                                 |
\*---------------------------------------------------------------------------*/
FoamFile
{
    version     2.0;
    format      ascii;
    class       volScalarField;
    location    "1000";
    object      epsilonPlus;
}
// * * * * * * * * * * * * * * * * * * * * * * * * * * * * * * * * * * * * * //

dimensions      [0 4 -4 0 0 0 0];

internalField   nonuniform List<scalar> 
150
(
0.1701177
0.1701177
0.1490286
0.1490286
0.1324632
0.1324632
0.1201833
0.1201833
0.1120053
0.1120053
0.1077358
0.1077358
0.1071088
0.1071088
0.1097465
0.1097465
0.1151627
0.1151627
0.1227966
0.1227966
0.1317067
0.1317067
0.1404386
0.1404386
0.1479688
0.1479688
0.1536339
0.1536339
0.1570983
0.1570983
0.1582959
0.1582959
0.1573597
0.1573597
0.154551
0.154551
0.150198
0.150198
0.1446487
0.1446487
0.1382368
0.1382368
0.1312618
0.1312618
0.1239788
0.1239788
0.1165954
0.1165954
0.109274
0.109274
0.1021361
0.1021361
0.09526863
0.09526863
0.08872953
0.08872953
0.08255403
0.08255403
0.07675959
0.07675959
0.07135027
0.07135027
0.06632034
0.06632034
0.06165717
0.06165717
0.05734344
0.05734344
0.05335887
0.05335887
0.04968157
0.04968157
0.04628897
0.04628897
0.04315848
0.04315848
0.04026804
0.04026804
0.03759638
0.03759638
0.0351233
0.0351233
0.03282978
0.03282978
0.03069814
0.03069814
0.02871207
0.02871207
0.02685672
0.02685672
0.02511873
0.02511873
0.02348623
0.02348623
0.02194886
0.02194886
0.02049767
0.02049767
0.01912507
0.01912507
0.01782462
0.01782462
0.01659094
0.01659094
0.01541949
0.01541949
0.01430649
0.01430649
0.01324872
0.01324872
0.01224347
0.01224347
0.01128846
0.01128846
0.01038174
0.01038174
0.009521683
0.009521683
0.008706892
0.008706891
0.007936188
0.007936188
0.007208527
0.007208527
0.0065231
0.0065231
0.005879588
0.005879588
0.005278276
0.005278276
0.004720043
0.004720043
0.004206321
0.004206321
0.003739019
0.003739019
0.003320389
0.003320389
0.002952865
0.002952865
0.002638888
0.002638888
0.002380856
0.002380856
0.002181155
0.002181155
0.002042879
0.002042879
0.001969991
0.001969991
)
;

boundaryField
{
    leftandright
    {
        type            cyclic;
        value           nonuniform List<scalar> 
150
(
0.1701177
0.1490286
0.1324632
0.1201833
0.1120053
0.1077358
0.1071088
0.1097465
0.1151627
0.1227966
0.1317067
0.1404386
0.1479688
0.1536339
0.1570983
0.1582959
0.1573597
0.154551
0.150198
0.1446487
0.1382368
0.1312618
0.1239788
0.1165954
0.109274
0.1021361
0.09526863
0.08872953
0.08255403
0.07675959
0.07135027
0.06632034
0.06165717
0.05734344
0.05335887
0.04968157
0.04628897
0.04315848
0.04026804
0.03759638
0.0351233
0.03282978
0.03069814
0.02871207
0.02685672
0.02511873
0.02348623
0.02194886
0.02049767
0.01912507
0.01782462
0.01659094
0.01541949
0.01430649
0.01324872
0.01224347
0.01128846
0.01038174
0.009521683
0.008706892
0.007936188
0.007208527
0.0065231
0.005879588
0.005278276
0.004720043
0.004206321
0.003739019
0.003320389
0.002952865
0.002638888
0.002380856
0.002181155
0.002042879
0.001969991
0.1701177
0.1490286
0.1324632
0.1201833
0.1120053
0.1077358
0.1071088
0.1097465
0.1151627
0.1227966
0.1317067
0.1404386
0.1479688
0.1536339
0.1570983
0.1582959
0.1573597
0.154551
0.150198
0.1446487
0.1382368
0.1312618
0.1239788
0.1165954
0.109274
0.1021361
0.09526863
0.08872953
0.08255403
0.07675959
0.07135027
0.06632034
0.06165717
0.05734344
0.05335887
0.04968157
0.04628897
0.04315848
0.04026804
0.03759638
0.0351233
0.03282978
0.03069814
0.02871207
0.02685672
0.02511873
0.02348623
0.02194886
0.02049767
0.01912507
0.01782462
0.01659094
0.01541949
0.01430649
0.01324872
0.01224347
0.01128846
0.01038174
0.009521683
0.008706892
0.007936188
0.007208527
0.0065231
0.005879588
0.005278276
0.004720043
0.004206321
0.003739019
0.003320389
0.002952865
0.002638888
0.002380856
0.002181155
0.002042879
0.001969991
)
;
    }
    wall
    {
        type            calculated;
        value           nonuniform List<scalar> 2(0.1834185 0.1834185);
    }
    frontAndBack
    {
        type            empty;
    }
    middle
    {
        type            symmetryPlane;
        value           nonuniform List<scalar> 2(0.001969991 0.001969991);
    }
}


// ************************************************************************* //
