/*--------------------------------*- C++ -*----------------------------------*\
| =========                 |                                                 |
| \\      /  F ield         | foam-extend: Open Source CFD                    |
|  \\    /   O peration     | Version:     4.0                                |
|   \\  /    A nd           | Web:         http://www.foam-extend.org         |
|    \\/     M anipulation  |                                                 |
\*---------------------------------------------------------------------------*/
FoamFile
{
    version     2.0;
    format      ascii;
    class       volScalarField;
    location    "1000";
    object      epsilonV;
}
// * * * * * * * * * * * * * * * * * * * * * * * * * * * * * * * * * * * * * //

dimensions      [0 2 -3 0 0 0 0];

internalField   nonuniform List<scalar> 
150
(
2.283535e-05
2.283535e-05
0.001180433
0.001180433
0.00749421
0.00749421
0.02561136
0.02561136
0.0632052
0.06320521
0.1264975
0.1264975
0.2179845
0.2179845
0.3359389
0.3359389
0.4750735
0.4750735
0.6575648
0.6575648
0.9293943
0.9293944
1.224328
1.224328
1.536425
1.536425
1.859584
1.859584
2.188698
2.188698
2.519159
2.519159
2.846478
2.846478
3.166056
3.166056
3.4731
3.4731
3.762698
3.762698
4.029991
4.029991
4.270406
4.270406
4.479878
4.479878
4.655043
4.655043
4.793353
4.793353
4.893135
4.893135
4.953578
4.953578
4.974681
4.974681
4.957166
4.957166
4.90238
4.902379
4.812197
4.812197
4.688925
4.688925
4.535224
4.535223
4.354034
4.354033
4.148531
4.14853
3.922099
3.922098
3.67828
3.678279
3.420762
3.420762
3.15338
3.153379
2.880126
2.880125
2.605154
2.605153
2.332771
2.33277
2.067382
2.067381
1.813363
1.813362
1.574844
1.574844
1.355393
1.355393
1.157657
1.157656
0.9830601
0.9830595
0.8316859
0.8316855
0.702394
0.7023937
0.5931488
0.5931486
0.5014343
0.5014341
0.4246298
0.4246297
0.3602713
0.3602712
0.3061886
0.3061885
0.2605488
0.2605487
0.2218434
0.2218434
0.1888498
0.1888497
0.1605845
0.1605845
0.1362654
0.1362654
0.1152622
0.1152622
0.09702894
0.09702894
0.08114967
0.08114967
0.06729596
0.06729596
0.05517923
0.05517923
0.04457627
0.04457627
0.0353247
0.0353247
0.02728987
0.02728988
0.02042156
0.02042156
0.01451997
0.01451997
0.009966497
0.009966498
0.005344398
0.005344398
0.00496886
0.004968861
-0.001943627
-0.001943626
0.001874142
0.001874142
)
;

boundaryField
{
    leftandright
    {
        type            cyclic;
        value           nonuniform List<scalar> 
150
(
2.283535e-05
0.001180433
0.00749421
0.02561136
0.06320521
0.1264975
0.2179845
0.3359389
0.4750735
0.6575648
0.9293943
1.224328
1.536425
1.859584
2.188698
2.519159
2.846478
3.166056
3.4731
3.762698
4.029991
4.270406
4.479878
4.655043
4.793353
4.893135
4.953578
4.974681
4.957166
4.90238
4.812197
4.688925
4.535223
4.354033
4.148531
3.922098
3.67828
3.420762
3.15338
2.880125
2.605153
2.33277
2.067381
1.813362
1.574844
1.355393
1.157656
0.9830598
0.8316857
0.7023939
0.5931487
0.5014342
0.4246297
0.3602712
0.3061885
0.2605488
0.2218434
0.1888498
0.1605845
0.1362654
0.1152622
0.09702894
0.08114967
0.06729596
0.05517923
0.04457627
0.0353247
0.02728987
0.02042156
0.01451997
0.009966497
0.005344398
0.004968861
-0.001943627
0.001874142
2.283535e-05
0.001180433
0.00749421
0.02561136
0.06320521
0.1264975
0.2179845
0.3359389
0.4750735
0.6575648
0.9293943
1.224328
1.536425
1.859584
2.188698
2.519159
2.846478
3.166056
3.4731
3.762698
4.029991
4.270406
4.479878
4.655043
4.793353
4.893135
4.953578
4.974681
4.957166
4.90238
4.812197
4.688925
4.535223
4.354033
4.148531
3.922098
3.67828
3.420762
3.15338
2.880125
2.605153
2.33277
2.067381
1.813362
1.574844
1.355393
1.157656
0.9830598
0.8316857
0.7023939
0.5931487
0.5014342
0.4246297
0.3602712
0.3061885
0.2605488
0.2218434
0.1888498
0.1605845
0.1362654
0.1152622
0.09702894
0.08114967
0.06729596
0.05517923
0.04457627
0.0353247
0.02728987
0.02042156
0.01451997
0.009966497
0.005344398
0.004968861
-0.001943627
0.001874142
)
;
    }
    wall
    {
        type            calculated;
        value           nonuniform List<scalar> 2(2.694236e-09 2.694236e-09);
    }
    frontAndBack
    {
        type            empty;
    }
    middle
    {
        type            symmetryPlane;
        value           nonuniform List<scalar> 2(0.001874142 0.001874142);
    }
}


// ************************************************************************* //
