/*--------------------------------*- C++ -*----------------------------------*\
| =========                 |                                                 |
| \\      /  F ield         | foam-extend: Open Source CFD                    |
|  \\    /   O peration     | Version:     4.0                                |
|   \\  /    A nd           | Web:         http://www.foam-extend.org         |
|    \\/     M anipulation  |                                                 |
\*---------------------------------------------------------------------------*/
FoamFile
{
    version     2.0;
    format      ascii;
    class       volScalarField;
    location    "1000";
    object      epsilon;
}
// * * * * * * * * * * * * * * * * * * * * * * * * * * * * * * * * * * * * * //

dimensions      [0 2 -3 0 0 0 0];

internalField   nonuniform List<scalar> 
150
(
67.19651
67.19651
58.86628
58.86628
52.32298
52.32298
47.4724
47.4724
44.24207
44.24207
42.55566
42.55566
42.30796
42.30796
43.34988
43.34988
45.48925
45.48925
48.50466
48.50466
52.02415
52.02415
55.47325
55.47325
58.44768
58.44768
60.68539
60.68539
62.05382
62.05382
62.52689
62.52689
62.15709
62.15709
61.04763
61.04763
59.32822
59.32822
57.13623
57.13623
54.60352
54.60352
51.8484
51.8484
48.97161
48.97161
46.05518
46.05518
43.16322
43.16322
40.34378
40.34378
37.63111
37.63111
35.04816
35.04816
32.60884
32.60884
30.32004
30.32004
28.18336
28.18336
26.19654
26.19654
24.35458
24.35458
22.65066
22.65066
21.07675
21.07675
19.62422
19.62422
18.28414
18.28414
17.0476
17.0476
15.90588
15.90588
14.85057
14.85057
13.8737
13.8737
12.96776
12.96776
12.12577
12.12577
11.34127
11.34127
10.60841
10.60841
9.921898
9.921898
9.277061
9.277061
8.669799
8.669799
8.096581
8.096581
7.554402
7.554402
7.040725
7.040725
6.553419
6.553419
6.090699
6.090699
5.651062
5.651062
5.233243
5.233243
4.836172
4.836172
4.458942
4.458942
4.100789
4.100789
3.761065
3.761065
3.439222
3.439222
3.134794
3.134794
2.847368
2.847368
2.576625
2.576625
2.322437
2.322437
2.084919
2.084919
1.864417
1.864417
1.661497
1.661497
1.476913
1.476913
1.311554
1.311554
1.166382
1.166382
1.042361
1.042361
0.940438
0.940438
0.8615561
0.8615561
0.8069374
0.8069374
0.7781463
0.7781463
)
;

boundaryField
{
    leftandright
    {
        type            cyclic;
        value           nonuniform List<scalar> 
150
(
67.19651
58.86628
52.32298
47.4724
44.24207
42.55566
42.30796
43.34988
45.48925
48.50466
52.02415
55.47325
58.44768
60.68539
62.05382
62.52689
62.15709
61.04763
59.32822
57.13623
54.60352
51.8484
48.97161
46.05518
43.16322
40.34378
37.63111
35.04816
32.60884
30.32004
28.18336
26.19654
24.35458
22.65066
21.07675
19.62422
18.28414
17.0476
15.90588
14.85057
13.8737
12.96776
12.12577
11.34127
10.60841
9.921898
9.277061
8.669799
8.096581
7.554402
7.040725
6.553419
6.090699
5.651062
5.233243
4.836172
4.458942
4.100789
3.761065
3.439222
3.134794
2.847368
2.576625
2.322437
2.084919
1.864417
1.661497
1.476913
1.311554
1.166382
1.042361
0.940438
0.8615561
0.8069374
0.7781463
67.19651
58.86628
52.32298
47.4724
44.24207
42.55566
42.30796
43.34988
45.48925
48.50466
52.02415
55.47325
58.44768
60.68539
62.05382
62.52689
62.15709
61.04763
59.32822
57.13623
54.60352
51.8484
48.97161
46.05518
43.16322
40.34378
37.63111
35.04816
32.60884
30.32004
28.18336
26.19654
24.35458
22.65066
21.07675
19.62422
18.28414
17.0476
15.90588
14.85057
13.8737
12.96776
12.12577
11.34127
10.60841
9.921898
9.277061
8.669799
8.096581
7.554402
7.040725
6.553419
6.090699
5.651062
5.233243
4.836172
4.458942
4.100789
3.761065
3.439222
3.134794
2.847368
2.576625
2.322437
2.084919
1.864417
1.661497
1.476913
1.311554
1.166382
1.042361
0.940438
0.8615561
0.8069374
0.7781463
)
;
    }
    wall
    {
        type            groovyBC;
        refValue        nonuniform List<scalar> 2(72.45029 72.45029);
        refGradient     uniform 0;
        valueFraction   uniform 1;
        value           nonuniform List<scalar> 2(72.45029 72.45029);
        valueExpression "2*nu*internalField(k)/sqr(mag(delta()))";
        gradientExpression "0";
        fractionExpression "1";
        evaluateDuringConstruction 0;
        variables       "";
        timelines       (
);
        lookuptables    (
);
    }
    frontAndBack
    {
        type            empty;
    }
    middle
    {
        type            symmetryPlane;
        value           nonuniform List<scalar> 2(0.7781463 0.7781463);
    }
}


// ************************************************************************* //
