/*--------------------------------*- C++ -*----------------------------------*\
| =========                 |                                                 |
| \\      /  F ield         | foam-extend: Open Source CFD                    |
|  \\    /   O peration     | Version:     4.0                                |
|   \\  /    A nd           | Web:         http://www.foam-extend.org         |
|    \\/     M anipulation  |                                                 |
\*---------------------------------------------------------------------------*/
FoamFile
{
    version     2.0;
    format      ascii;
    class       volScalarField;
    location    "1000";
    object      EtauP;
}
// * * * * * * * * * * * * * * * * * * * * * * * * * * * * * * * * * * * * * //

dimensions      [0 2 -4 0 0 0 0];

internalField   nonuniform List<scalar> 
150
(
0.003593843
0.003593843
0.1038433
0.1038433
0.4968943
0.4968943
1.427925
1.427925
3.143162
3.143162
5.842609
5.84261
9.647763
9.647763
14.6001
14.6001
20.64581
20.64581
27.48032
27.48032
34.55544
34.55544
41.49921
41.49921
48.17228
48.17228
54.3865
54.38651
59.98865
59.98865
64.86262
64.86263
68.92676
68.92677
72.12953
72.12954
74.44604
74.44605
75.87585
75.87586
76.44139
76.4414
76.18616
76.18616
75.17205
75.17205
73.47577
73.47577
71.18452
71.18452
68.39139
68.3914
65.19103
65.19103
61.67584
61.67584
57.93306
57.93305
54.04265
54.04264
50.07608
50.07608
46.09576
46.09575
42.15503
42.15503
38.2986
38.2986
34.56321
34.56321
30.97864
30.97864
27.56838
27.56838
24.35059
24.35059
21.33906
21.33906
18.54408
18.54407
15.97311
15.9731
13.63133
13.63133
11.52179
11.52178
9.64517
9.645165
7.999215
7.99921
6.577793
6.577789
5.370064
5.370061
4.360152
4.36015
3.527741
3.527739
2.849602
2.849601
2.301656
2.301655
1.860924
1.860923
1.5069
1.5069
1.222197
1.222196
0.9925926
0.9925924
0.8067288
0.8067287
0.6556581
0.655658
0.5323798
0.5323797
0.4314258
0.4314258
0.3485332
0.3485332
0.2803421
0.280342
0.2241048
0.2241048
0.1777031
0.1777031
0.1394651
0.1394651
0.1080049
0.1080049
0.08223013
0.08223013
0.06128244
0.06128244
0.04443875
0.04443875
0.03117319
0.03117319
0.0207732
0.0207732
0.01338528
0.01338528
0.00676701
0.006767011
0.005978503
0.005978503
-0.002249756
-0.002249755
0.002122807
0.002122808
)
;

boundaryField
{
    leftandright
    {
        type            cyclic;
        value           nonuniform List<scalar> 
150
(
0.003593843
0.1038433
0.4968943
1.427925
3.143162
5.842609
9.647763
14.6001
20.64581
27.48032
34.55544
41.49921
48.17228
54.38651
59.98865
64.86263
68.92677
72.12954
74.44605
75.87586
76.4414
76.18616
75.17205
73.47577
71.18452
68.39139
65.19103
61.67584
57.93305
54.04265
50.07608
46.09576
42.15503
38.2986
34.56321
30.97864
27.56838
24.35059
21.33906
18.54407
15.97311
13.63133
11.52179
9.645168
7.999212
6.577791
5.370062
4.360151
3.52774
2.849601
2.301656
1.860924
1.5069
1.222197
0.9925925
0.8067288
0.655658
0.5323797
0.4314258
0.3485332
0.2803421
0.2241048
0.1777031
0.1394651
0.1080049
0.08223013
0.06128244
0.04443875
0.03117319
0.0207732
0.01338528
0.006767011
0.005978503
-0.002249755
0.002122807
0.003593843
0.1038433
0.4968943
1.427925
3.143162
5.842609
9.647763
14.6001
20.64581
27.48032
34.55544
41.49921
48.17228
54.38651
59.98865
64.86263
68.92677
72.12954
74.44605
75.87586
76.4414
76.18616
75.17205
73.47577
71.18452
68.39139
65.19103
61.67584
57.93305
54.04265
50.07608
46.09576
42.15503
38.2986
34.56321
30.97864
27.56838
24.35059
21.33906
18.54407
15.97311
13.63133
11.52179
9.645168
7.999212
6.577791
5.370062
4.360151
3.52774
2.849601
2.301656
1.860924
1.5069
1.222197
0.9925925
0.8067288
0.655658
0.5323797
0.4314258
0.3485332
0.2803421
0.2241048
0.1777031
0.1394651
0.1080049
0.08223013
0.06128244
0.04443875
0.03117319
0.0207732
0.01338528
0.006767011
0.005978503
-0.002249755
0.002122807
)
;
    }
    wall
    {
        type            calculated;
        value           nonuniform List<scalar> 2(1.111341e-07 1.111341e-07);
    }
    frontAndBack
    {
        type            empty;
    }
    middle
    {
        type            symmetryPlane;
        value           nonuniform List<scalar> 2(0.002122807 0.002122808);
    }
}


// ************************************************************************* //
