/*--------------------------------*- C++ -*----------------------------------*\
| =========                 |                                                 |
| \\      /  F ield         | foam-extend: Open Source CFD                    |
|  \\    /   O peration     | Version:     4.0                                |
|   \\  /    A nd           | Web:         http://www.foam-extend.org         |
|    \\/     M anipulation  |                                                 |
\*---------------------------------------------------------------------------*/
FoamFile
{
    version     2.0;
    format      ascii;
    class       volScalarField;
    location    "1000";
    object      eVyy;
}
// * * * * * * * * * * * * * * * * * * * * * * * * * * * * * * * * * * * * * //

dimensions      [0 2 -3 0 0 0 0];

internalField   nonuniform List<scalar> 
150
(
2.579465e-09
2.579465e-09
6.063799e-07
6.063799e-07
8.751629e-06
8.75163e-06
5.140376e-05
5.140376e-05
0.000187821
0.000187821
0.0005077436
0.0005077437
0.001111858
0.001111858
0.002087142
0.002087142
0.003488634
0.003488634
0.005582553
0.005582553
0.008972252
0.008972253
0.01329676
0.01329676
0.01864542
0.01864542
0.02510466
0.02510467
0.03276593
0.03276593
0.04171584
0.04171584
0.05202479
0.0520248
0.06373481
0.06373482
0.07684801
0.07684802
0.09131718
0.09131719
0.1070396
0.1070396
0.1238547
0.1238547
0.1415459
0.1415459
0.1598451
0.1598451
0.1784412
0.1784412
0.1969891
0.1969891
0.2151206
0.2151206
0.2324553
0.2324553
0.2486119
0.2486119
0.2632188
0.2632188
0.2759247
0.2759247
0.2864087
0.2864087
0.2943896
0.2943896
0.299635
0.299635
0.3019697
0.3019697
0.3012847
0.3012847
0.2975412
0.2975412
0.2907759
0.2907758
0.2811064
0.2811063
0.2687375
0.2687374
0.2539657
0.2539656
0.2371816
0.2371815
0.2188668
0.2188667
0.1995809
0.1995808
0.1799339
0.1799338
0.1605424
0.1605423
0.1419716
0.1419715
0.1246771
0.1246771
0.1089623
0.1089622
0.09496583
0.09496578
0.08268215
0.08268212
0.07200203
0.072002
0.06275825
0.06275823
0.05476328
0.05476326
0.04783395
0.04783394
0.04180465
0.04180465
0.03653223
0.03653223
0.03189622
0.03189622
0.02779678
0.02779678
0.02415293
0.02415293
0.02089778
0.02089778
0.01796933
0.01796933
0.01532833
0.01532833
0.0129494
0.0129494
0.01080585
0.01080585
0.008876808
0.008876808
0.007148287
0.007148287
0.005608172
0.005608172
0.004259121
0.004259121
0.003070906
0.003070906
0.002135313
0.002135313
0.00115829
0.00115829
0.001087273
0.001087273
-0.0004283037
-0.0004283035
0.0004145948
0.0004145949
)
;

boundaryField
{
    leftandright
    {
        type            cyclic;
        value           nonuniform List<scalar> 
150
(
2.579465e-09
6.063799e-07
8.75163e-06
5.140376e-05
0.000187821
0.0005077436
0.001111858
0.002087142
0.003488634
0.005582553
0.008972252
0.01329676
0.01864542
0.02510466
0.03276593
0.04171584
0.0520248
0.06373482
0.07684802
0.09131718
0.1070396
0.1238547
0.1415459
0.1598451
0.1784412
0.1969891
0.2151206
0.2324553
0.2486119
0.2632188
0.2759247
0.2864087
0.2943896
0.299635
0.3019697
0.3012847
0.2975412
0.2907758
0.2811063
0.2687374
0.2539656
0.2371816
0.2188668
0.1995808
0.1799338
0.1605423
0.1419716
0.1246771
0.1089622
0.09496581
0.08268214
0.07200201
0.06275824
0.05476327
0.04783394
0.04180465
0.03653223
0.03189622
0.02779678
0.02415293
0.02089778
0.01796933
0.01532833
0.0129494
0.01080585
0.008876808
0.007148287
0.005608172
0.004259121
0.003070906
0.002135313
0.00115829
0.001087273
-0.0004283036
0.0004145948
2.579465e-09
6.063799e-07
8.75163e-06
5.140376e-05
0.000187821
0.0005077436
0.001111858
0.002087142
0.003488634
0.005582553
0.008972252
0.01329676
0.01864542
0.02510466
0.03276593
0.04171584
0.0520248
0.06373482
0.07684802
0.09131718
0.1070396
0.1238547
0.1415459
0.1598451
0.1784412
0.1969891
0.2151206
0.2324553
0.2486119
0.2632188
0.2759247
0.2864087
0.2943896
0.299635
0.3019697
0.3012847
0.2975412
0.2907758
0.2811063
0.2687374
0.2539656
0.2371816
0.2188668
0.1995808
0.1799338
0.1605423
0.1419716
0.1246771
0.1089622
0.09496581
0.08268214
0.07200201
0.06275824
0.05476327
0.04783394
0.04180465
0.03653223
0.03189622
0.02779678
0.02415293
0.02089778
0.01796933
0.01532833
0.0129494
0.01080585
0.008876808
0.007148287
0.005608172
0.004259121
0.003070906
0.002135313
0.00115829
0.001087273
-0.0004283036
0.0004145948
)
;
    }
    wall
    {
        type            calculated;
        value           nonuniform List<scalar> 2(1.48183e-09 1.48183e-09);
    }
    frontAndBack
    {
        type            empty;
    }
    middle
    {
        type            symmetryPlane;
        value           nonuniform List<scalar> 2(0.0004145948 0.0004145949);
    }
}


// ************************************************************************* //
