/*--------------------------------*- C++ -*----------------------------------*\
| =========                 |                                                 |
| \\      /  F ield         | foam-extend: Open Source CFD                    |
|  \\    /   O peration     | Version:     4.0                                |
|   \\  /    A nd           | Web:         http://www.foam-extend.org         |
|    \\/     M anipulation  |                                                 |
\*---------------------------------------------------------------------------*/
FoamFile
{
    version     2.0;
    format      ascii;
    class       volScalarField;
    location    "1000";
    object      f;
}
// * * * * * * * * * * * * * * * * * * * * * * * * * * * * * * * * * * * * * //

dimensions      [0 0 -1 0 0 0 0];

internalField   nonuniform List<scalar> 
150
(
0.06717415
0.06717415
0.2020963
0.2020963
0.3411005
0.3411005
0.4843255
0.4843255
0.6317935
0.6317935
0.7833929
0.7833929
0.938859
0.938859
1.097751
1.097751
1.259426
1.259426
1.423014
1.423014
1.587617
1.587617
1.75254
1.75254
1.916994
1.916994
2.080162
2.080162
2.241239
2.241239
2.399467
2.399467
2.554153
2.554153
2.704675
2.704675
2.850485
2.850485
2.991106
2.991106
3.126129
3.126129
3.255204
3.255204
3.378032
3.378032
3.494359
3.494359
3.603971
3.603971
3.706681
3.706681
3.802334
3.802334
3.890792
3.890792
3.971937
3.971937
4.045668
4.045668
4.111895
4.111895
4.170541
4.170541
4.221537
4.221537
4.264824
4.264824
4.300347
4.300347
4.328463
4.328463
4.349517
4.349517
4.363828
4.363828
4.371685
4.371685
4.373358
4.373358
4.36909
4.36909
4.359109
4.359109
4.343624
4.343624
4.322831
4.322831
4.296912
4.296912
4.26604
4.26604
4.230379
4.230379
4.190087
4.190087
4.145319
4.145319
4.096225
4.096225
4.042956
4.042956
3.985661
3.985661
3.924492
3.924492
3.859603
3.859603
3.791152
3.791152
3.719303
3.719303
3.644232
3.644232
3.566131
3.566131
3.485212
3.485212
3.401724
3.401724
3.315958
3.315958
3.228274
3.228274
3.139128
3.139128
3.049097
3.049097
2.95889
2.95889
2.86936
2.86936
2.781525
2.781525
2.696568
2.696568
2.615847
2.615847
2.540887
2.540887
2.473367
2.473367
2.415106
2.415106
2.368055
2.368055
2.334309
2.334309
2.316154
2.316154
)
;

boundaryField
{
    leftandright
    {
        type            cyclic;
        value           nonuniform List<scalar> 
150
(
0.06717415
0.2020963
0.3411005
0.4843255
0.6317935
0.7833929
0.938859
1.097751
1.259426
1.423014
1.587617
1.75254
1.916994
2.080162
2.241239
2.399467
2.554153
2.704675
2.850485
2.991106
3.126129
3.255204
3.378032
3.494359
3.603971
3.706681
3.802334
3.890792
3.971937
4.045668
4.111895
4.170541
4.221537
4.264824
4.300347
4.328463
4.349517
4.363828
4.371685
4.373358
4.36909
4.359109
4.343624
4.322831
4.296912
4.26604
4.230379
4.190087
4.145319
4.096225
4.042956
3.985661
3.924492
3.859603
3.791152
3.719303
3.644232
3.566131
3.485212
3.401724
3.315958
3.228274
3.139128
3.049097
2.95889
2.86936
2.781525
2.696568
2.615847
2.540887
2.473367
2.415106
2.368055
2.334309
2.316154
0.06717415
0.2020963
0.3411005
0.4843255
0.6317935
0.7833929
0.938859
1.097751
1.259426
1.423014
1.587617
1.75254
1.916994
2.080162
2.241239
2.399467
2.554153
2.704675
2.850485
2.991106
3.126129
3.255204
3.378032
3.494359
3.603971
3.706681
3.802334
3.890792
3.971937
4.045668
4.111895
4.170541
4.221537
4.264824
4.300347
4.328463
4.349517
4.363828
4.371685
4.373358
4.36909
4.359109
4.343624
4.322831
4.296912
4.26604
4.230379
4.190087
4.145319
4.096225
4.042956
3.985661
3.924492
3.859603
3.791152
3.719303
3.644232
3.566131
3.485212
3.401724
3.315958
3.228274
3.139128
3.049097
2.95889
2.86936
2.781525
2.696568
2.615847
2.540887
2.473367
2.415106
2.368055
2.334309
2.316154
)
;
    }
    wall
    {
        type            fixedValue;
        value           uniform 1e-10;
    }
    frontAndBack
    {
        type            empty;
    }
    middle
    {
        type            symmetryPlane;
        value           nonuniform List<scalar> 2(2.316154 2.316154);
    }
}


// ************************************************************************* //
