/*--------------------------------*- C++ -*----------------------------------*\
| =========                 |                                                 |
| \\      /  F ield         | foam-extend: Open Source CFD                    |
|  \\    /   O peration     | Version:     4.0                                |
|   \\  /    A nd           | Web:         http://www.foam-extend.org         |
|    \\/     M anipulation  |                                                 |
\*---------------------------------------------------------------------------*/
FoamFile
{
    version     2.0;
    format      ascii;
    class       volScalarField;
    location    "1000";
    object      fp;
}
// * * * * * * * * * * * * * * * * * * * * * * * * * * * * * * * * * * * * * //

dimensions      [0 0 0 0 0 0 0];

internalField   nonuniform List<scalar> 
150
(
1.591569
1.591569
1.590744
1.590744
1.589104
1.589104
1.586405
1.586405
1.582313
1.582313
1.576603
1.576603
1.569299
1.569299
1.560595
1.560595
1.550301
1.550301
1.537529
1.537529
1.522082
1.522082
1.504829
1.504829
1.487314
1.487314
1.470228
1.470228
1.453839
1.453839
1.438208
1.438208
1.423297
1.423297
1.409014
1.409014
1.395242
1.395242
1.381857
1.381857
1.368741
1.368741
1.355793
1.355793
1.342935
1.342935
1.330105
1.330105
1.317262
1.317262
1.304381
1.304381
1.291447
1.291447
1.278453
1.278453
1.265399
1.265399
1.252288
1.252288
1.239127
1.239127
1.225923
1.225923
1.212689
1.212689
1.199441
1.199441
1.186197
1.186197
1.172986
1.172986
1.15984
1.15984
1.146802
1.146802
1.133925
1.133925
1.121276
1.121276
1.108935
1.108935
1.096997
1.096997
1.085572
1.085572
1.074778
1.074778
1.064737
1.064737
1.055558
1.055558
1.047323
1.047323
1.040074
1.040074
1.033803
1.033803
1.028459
1.028459
1.023953
1.023953
1.020179
1.020179
1.017028
1.017028
1.014396
1.014396
1.012193
1.012193
1.01034
1.01034
1.008775
1.008775
1.007446
1.007446
1.006313
1.006313
1.005342
1.005342
1.004506
1.004506
1.003784
1.003784
1.003158
1.003158
1.002613
1.002613
1.002139
1.002139
1.001724
1.001724
1.001364
1.001364
1.001051
1.001051
1.000785
1.000785
1.000557
1.000557
1.000381
1.000381
1.000205
1.000205
1.000189
1.000189
1
1
1.000071
1.000071
)
;

boundaryField
{
    leftandright
    {
        type            cyclic;
        value           nonuniform List<scalar> 
150
(
1.591569
1.590744
1.589104
1.586405
1.582313
1.576603
1.569299
1.560595
1.550301
1.537529
1.522082
1.504829
1.487314
1.470228
1.453839
1.438208
1.423297
1.409014
1.395242
1.381857
1.368741
1.355793
1.342935
1.330105
1.317262
1.304381
1.291447
1.278453
1.265399
1.252288
1.239127
1.225923
1.212689
1.199441
1.186197
1.172986
1.15984
1.146802
1.133925
1.121276
1.108935
1.096997
1.085572
1.074778
1.064737
1.055558
1.047323
1.040074
1.033803
1.028459
1.023953
1.020179
1.017028
1.014396
1.012193
1.01034
1.008775
1.007446
1.006313
1.005342
1.004506
1.003784
1.003158
1.002613
1.002139
1.001724
1.001364
1.001051
1.000785
1.000557
1.000381
1.000205
1.000189
1
1.000071
1.591569
1.590744
1.589104
1.586405
1.582313
1.576603
1.569299
1.560595
1.550301
1.537529
1.522082
1.504829
1.487314
1.470228
1.453839
1.438208
1.423297
1.409014
1.395242
1.381857
1.368741
1.355793
1.342935
1.330105
1.317262
1.304381
1.291447
1.278453
1.265399
1.252288
1.239127
1.225923
1.212689
1.199441
1.186197
1.172986
1.15984
1.146802
1.133925
1.121276
1.108935
1.096997
1.085572
1.074778
1.064737
1.055558
1.047323
1.040074
1.033803
1.028459
1.023953
1.020179
1.017028
1.014396
1.012193
1.01034
1.008775
1.007446
1.006313
1.005342
1.004506
1.003784
1.003158
1.002613
1.002139
1.001724
1.001364
1.001051
1.000785
1.000557
1.000381
1.000205
1.000189
1
1.000071
)
;
    }
    wall
    {
        type            calculated;
        value           nonuniform List<scalar> 2(1.591569 1.591569);
    }
    frontAndBack
    {
        type            empty;
    }
    middle
    {
        type            symmetryPlane;
        value           nonuniform List<scalar> 2(1.000071 1.000071);
    }
}


// ************************************************************************* //
