/*--------------------------------*- C++ -*----------------------------------*\
| =========                 |                                                 |
| \\      /  F ield         | foam-extend: Open Source CFD                    |
|  \\    /   O peration     | Version:     4.0                                |
|   \\  /    A nd           | Web:         http://www.foam-extend.org         |
|    \\/     M anipulation  |                                                 |
\*---------------------------------------------------------------------------*/
FoamFile
{
    version     2.0;
    format      ascii;
    class       volScalarField;
    location    "1000";
    object      k;
}
// * * * * * * * * * * * * * * * * * * * * * * * * * * * * * * * * * * * * * //

dimensions      [0 2 -2 0 0 0 0];

internalField   nonuniform List<scalar> 
150
(
0.00616395
0.00616395
0.06570339
0.06570339
0.1735323
0.1735324
0.3305661
0.3305661
0.5372494
0.5372494
0.7927299
0.7927299
1.094138
1.094138
1.436362
1.436362
1.812476
1.812476
2.213445
2.213445
2.624284
2.624284
3.024971
3.024971
3.400444
3.400444
3.739313
3.739313
4.034214
4.034214
4.281533
4.281533
4.480792
4.480792
4.63388
4.63388
4.744304
4.744304
4.816528
4.816528
4.855452
4.855452
4.866021
4.866021
4.852964
4.852964
4.820629
4.820629
4.772896
4.772896
4.713149
4.713149
4.64428
4.64428
4.568719
4.568719
4.488474
4.488474
4.405181
4.405181
4.320149
4.320149
4.234406
4.234406
4.148739
4.148739
4.063732
4.063732
3.9798
3.9798
3.89721
3.89721
3.816113
3.816113
3.736556
3.736556
3.658506
3.658506
3.581857
3.581857
3.506448
3.506448
3.432071
3.432071
3.358486
3.358486
3.285429
3.285429
3.212625
3.212625
3.139802
3.139802
3.066698
3.066698
2.993078
2.993078
2.918737
2.918737
2.843508
2.843508
2.767263
2.767263
2.689913
2.689913
2.611405
2.611405
2.53172
2.53172
2.45087
2.45087
2.368897
2.368897
2.285874
2.285874
2.201904
2.201904
2.117123
2.117123
2.031699
2.031699
1.945836
1.945836
1.859769
1.859769
1.773784
1.773784
1.688262
1.688262
1.603708
1.603708
1.520778
1.520778
1.440291
1.440291
1.36324
1.36324
1.290781
1.290781
1.22421
1.22421
1.164921
1.164921
1.114366
1.114366
1.074001
1.074001
1.045376
1.045376
1.030036
1.030036
)
;

boundaryField
{
    leftandright
    {
        type            cyclic;
        value           nonuniform List<scalar> 
150
(
0.00616395
0.06570339
0.1735324
0.3305661
0.5372494
0.7927299
1.094138
1.436362
1.812476
2.213445
2.624284
3.024971
3.400444
3.739313
4.034214
4.281533
4.480792
4.63388
4.744304
4.816528
4.855452
4.866021
4.852964
4.820629
4.772896
4.713149
4.64428
4.568719
4.488474
4.405181
4.320149
4.234406
4.148739
4.063732
3.9798
3.89721
3.816113
3.736556
3.658506
3.581857
3.506448
3.432071
3.358486
3.285429
3.212625
3.139802
3.066698
2.993078
2.918737
2.843508
2.767263
2.689913
2.611405
2.53172
2.45087
2.368897
2.285874
2.201904
2.117123
2.031699
1.945836
1.859769
1.773784
1.688262
1.603708
1.520778
1.440291
1.36324
1.290781
1.22421
1.164921
1.114366
1.074001
1.045376
1.030036
0.00616395
0.06570339
0.1735324
0.3305661
0.5372494
0.7927299
1.094138
1.436362
1.812476
2.213445
2.624284
3.024971
3.400444
3.739313
4.034214
4.281533
4.480792
4.63388
4.744304
4.816528
4.855452
4.866021
4.852964
4.820629
4.772896
4.713149
4.64428
4.568719
4.488474
4.405181
4.320149
4.234406
4.148739
4.063732
3.9798
3.89721
3.816113
3.736556
3.658506
3.581857
3.506448
3.432071
3.358486
3.285429
3.212625
3.139802
3.066698
2.993078
2.918737
2.843508
2.767263
2.689913
2.611405
2.53172
2.45087
2.368897
2.285874
2.201904
2.117123
2.031699
1.945836
1.859769
1.773784
1.688262
1.603708
1.520778
1.440291
1.36324
1.290781
1.22421
1.164921
1.114366
1.074001
1.045376
1.030036
)
;
    }
    wall
    {
        type            fixedValue;
        value           uniform 1e-10;
    }
    frontAndBack
    {
        type            empty;
    }
    middle
    {
        type            symmetryPlane;
        value           nonuniform List<scalar> 2(1.030036 1.030036);
    }
}


// ************************************************************************* //
