/*--------------------------------*- C++ -*----------------------------------*\
| =========                 |                                                 |
| \\      /  F ield         | foam-extend: Open Source CFD                    |
|  \\    /   O peration     | Version:     4.0                                |
|   \\  /    A nd           | Web:         http://www.foam-extend.org         |
|    \\/     M anipulation  |                                                 |
\*---------------------------------------------------------------------------*/
FoamFile
{
    version     2.0;
    format      ascii;
    class       volSymmTensorField;
    location    "1000";
    object      N;
}
// * * * * * * * * * * * * * * * * * * * * * * * * * * * * * * * * * * * * * //

dimensions      [0 2 -2 0 0 0 0];

internalField   nonuniform List<symmTensor> 
150
(
(0.01144814 0 0 1.265955e-06 0 0.000878497)
(0.01144814 0 0 1.265955e-06 0 0.0008784971)
(0.1219791 0 0 6.136611e-05 0 0.009366366)
(0.1219791 0 0 6.136611e-05 0 0.009366366)
(0.3219467 0 0 0.0003684519 0 0.02474953)
(0.3219467 0 0 0.0003684519 0 0.02474953)
(0.6127436 0 0 0.001206307 0 0.04718232)
(0.6127436 0 0 0.001206307 0 0.04718232)
(0.9948237 0 0 0.002902715 0 0.07677228)
(0.9948237 0 0 0.002902715 0 0.07677228)
(1.466209 0 0 0.005785287 0 0.1134653)
(1.466209 0 0 0.005785288 0 0.1134653)
(2.021195 3.701574e-18 0 0.01014689 0 0.1569347)
(2.021195 -3.701574e-18 0 0.01014689 0 0.1569347)
(2.649963 0 0 0.01622531 0 0.2065364)
(2.649963 0 0 0.01622531 0 0.2065365)
(3.339361 0 0 0.02419938 0 0.2613921)
(3.339361 -1.082752e-17 0 0.02419938 0 0.2613921)
(4.072324 0 0 0.03416649 0 0.3203995)
(4.072324 0 0 0.03416649 0 0.3203995)
(4.80864 0 0 0.04606272 0 0.3938653)
(4.80864 0 0 0.04606273 0 0.3938653)
(5.510854 -3.29891e-17 0 0.0597319 0 0.479357)
(5.510854 3.29891e-17 0 0.05973191 0 0.479357)
(6.15881 0 0 0.07502976 0 0.5670485)
(6.15881 0 0 0.07502976 0 0.5670485)
(6.732148 4.005428e-17 0 0.09178417 0 0.6546939)
(6.732149 -4.005428e-17 0 0.09178417 0 0.654694)
(7.218261 0 0 0.1098077 0 0.7403585)
(7.218261 0 0 0.1098077 0 0.7403586)
(7.611668 -4.466921e-17 0 0.1289086 0 0.8224894)
(7.611668 0 0 0.1289086 0 0.8224894)
(7.912752 0 0 0.1489 0 0.8999318)
(7.912753 0 0 0.1489 0 0.8999318)
(8.126248 9.353616e-17 0 0.1696056 0 0.9719065)
(8.126249 0 0 0.1696056 0 0.9719065)
(8.25978 0 0 0.1908645 0 1.037963)
(8.25978 0 0 0.1908645 0 1.037963)
(8.322602 -1.868562e-16 0 0.2125321 0 1.097921)
(8.322602 9.342812e-17 0 0.2125321 0 1.097921)
(8.324609 0 0 0.2344808 0 1.151813)
(8.324609 0 0 0.2344808 0 1.151813)
(8.275618 1.801732e-16 0 0.2565989 0 1.199825)
(8.275618 0 0 0.2565989 0 1.199825)
(8.18489 1.750891e-16 0 0.2787888 0 1.24225)
(8.18489 0 0 0.2787888 0 1.24225)
(8.060845 0 0 0.3009655 0 1.279447)
(8.060845 0 0 0.3009655 0 1.279447)
(7.910925 -1.626359e-16 0 0.323054 0 1.311813)
(7.910925 0 0 0.323054 0 1.311813)
(7.741557 -1.556673e-16 0 0.3449877 0 1.339753)
(7.741557 0 0 0.3449877 0 1.339753)
(7.558184 -2.968493e-16 0 0.3667066 0 1.363669)
(7.558184 0 0 0.3667066 0 1.363669)
(7.365336 0 0 0.3881557 0 1.383945)
(7.365337 0 0 0.3881557 0 1.383945)
(7.166725 0 0 0.4092837 0 1.400938)
(7.166726 0 0 0.4092838 0 1.400938)
(6.965341 0 0 0.4300421 0 1.414979)
(6.965341 0 0 0.4300422 0 1.414979)
(6.763551 2.380673e-16 0 0.4503843 0 1.426363)
(6.763551 -2.380673e-16 0 0.4503843 0 1.426363)
(6.563191 2.239639e-16 0 0.470265 0 1.435356)
(6.563191 0 0 0.470265 0 1.435356)
(6.365649 -6.309116e-16 0 0.4896403 0 1.442188)
(6.365649 0 0 0.4896403 0 1.442188)
(6.171935 0 0 0.5084675 0 1.447063)
(6.171935 0 0 0.5084675 0 1.447063)
(5.982744 3.690648e-16 0 0.5267051 0 1.45015)
(5.982744 0 0 0.5267051 0 1.45015)
(5.798509 0 0 0.5443142 0 1.451597)
(5.798509 0 0 0.5443142 0 1.451597)
(5.619448 6.440833e-16 0 0.5612558 0 1.451521)
(5.619448 -3.220417e-16 0 0.5612558 0 1.451521)
(5.445609 0 0 0.5774897 0 1.450013)
(5.445609 0 0 0.5774897 0 1.450013)
(5.276899 0 0 0.5929737 0 1.447139)
(5.276899 0 0 0.5929737 0 1.447139)
(5.113114 0 0 0.6076624 0 1.442938)
(5.113114 0 0 0.6076624 0 1.442938)
(4.953959 0 0 0.6215075 0 1.437429)
(4.953959 0 0 0.6215075 0 1.437429)
(4.799075 0 0 0.6344574 0 1.430609)
(4.799075 0 0 0.6344574 0 1.430609)
(4.648055 0 0 0.6464577 0 1.422459)
(4.648055 0 0 0.6464577 0 1.422459)
(4.500462 -7.711474e-16 0 0.6574512 0 1.412945)
(4.500462 0 0 0.6574512 0 1.412945)
(4.355849 -3.567e-16 0 0.6673793 0 1.402022)
(4.355849 0 0 0.6673793 0 1.402022)
(4.213782 0 0 0.6761823 0 1.389639)
(4.213782 0 0 0.6761823 0 1.389639)
(4.073851 0 0 0.6838014 0 1.375744)
(4.073851 0 0 0.6838014 0 1.375744)
(3.935689 0 0 0.6901795 0 1.360288)
(3.935689 0 0 0.6901795 0 1.360288)
(3.798984 5.154782e-16 0 0.6952629 0 1.343228)
(3.798984 0 0 0.6952629 0 1.343228)
(3.663485 4.734304e-16 0 0.6990018 0 1.32453)
(3.663485 -4.734304e-16 0 0.6990018 0 1.32453)
(3.529002 0 0 0.7013518 0 1.304173)
(3.529002 0 0 0.7013518 0 1.304173)
(3.395407 0 0 0.7022735 0 1.282147)
(3.395407 0 0 0.7022735 0 1.282147)
(3.262624 0 0 0.7017331 0 1.258454)
(3.262624 0 0 0.7017331 0 1.258454)
(3.130632 0 0 0.6997014 0 1.233107)
(3.130632 0 0 0.6997014 0 1.233107)
(2.999457 0 0 0.6961532 0 1.20613)
(2.999457 0 0 0.6961532 0 1.20613)
(2.869174 -5.4603e-16 0 0.6910653 0 1.177555)
(2.869174 5.4603e-16 0 0.6910653 0 1.177555)
(2.739909 0 0 0.6844147 0 1.147424)
(2.739909 0 0 0.6844146 0 1.147424)
(2.611849 0 0 0.6761741 0 1.115785)
(2.611849 0 0 0.6761741 0 1.115785)
(2.485248 -4.024286e-16 0 0.6663069 0 1.082691)
(2.485248 4.024286e-16 0 0.6663068 0 1.082691)
(2.360444 0 0 0.654758 0 1.048197)
(2.360444 0 0 0.654758 0 1.048197)
(2.23788 0 0 0.6414413 0 1.012351)
(2.23788 0 0 0.6414413 0 1.012351)
(2.118129 0 0 0.6262199 0 0.9751893)
(2.118129 0 0 0.6262199 0 0.9751893)
(2.001493 -1.037891e-15 0 0.6091809 0 0.9368951)
(2.001493 0 0 0.6091809 0 0.9368951)
(1.888043 0 0 0.59066 0 0.8978197)
(1.888043 -4.627446e-16 0 0.59066 0 0.8978197)
(1.778043 0 0 0.5710128 0 0.8583596)
(1.778043 0 0 0.5710128 0 0.8583596)
(1.671958 0 0 0.5506252 0 0.8189717)
(1.671958 0 0 0.5506252 0 0.8189717)
(1.570477 0 0 0.5299209 0 0.7801848)
(1.570477 -6.493174e-16 0 0.5299209 0 0.7801848)
(1.474509 0 0 0.5093654 0 0.7426058)
(1.474509 0 0 0.5093654 0 0.7426058)
(1.38518 0 0 0.4894641 0 0.7069174)
(1.38518 0 0 0.4894641 0 0.7069174)
(1.303799 0 0 0.4707539 0 0.6738662)
(1.303799 0 0 0.4707539 0 0.6738662)
(1.231813 0 0 0.4537878 0 0.6442413)
(1.231813 0 0 0.4537878 0 0.6442413)
(1.170759 0 0 0.4391204 0 0.6188522)
(1.170759 0 0 0.4391204 0 0.6188522)
(1.122208 0 0 0.4272909 0 0.598503)
(1.122208 0 0 0.4272909 0 0.598503)
(1.08788 0 0 0.4188405 0 0.5840315)
(1.08788 0 0 0.4188405 0 0.5840315)
(1.069511 -5.640591e-16 0 0.4142964 0 0.5762653)
(1.069511 0 0 0.4142964 0 0.5762653)
)
;

boundaryField
{
    leftandright
    {
        type            cyclic;
        value           nonuniform List<symmTensor> 
150
(
(0.01144814 0 0 1.265955e-06 0 0.0008784971)
(0.1219791 0 0 6.136611e-05 0 0.009366366)
(0.3219467 0 0 0.0003684519 0 0.02474953)
(0.6127436 0 0 0.001206307 0 0.04718232)
(0.9948237 0 0 0.002902715 0 0.07677228)
(1.466209 0 0 0.005785287 0 0.1134653)
(2.021195 -2.035462e-33 0 0.01014689 0 0.1569347)
(2.649963 0 0 0.01622531 0 0.2065365)
(3.339361 -5.413758e-18 0 0.02419938 0 0.2613921)
(4.072324 0 0 0.03416649 0 0.3203995)
(4.80864 0 0 0.04606273 0 0.3938653)
(5.510854 -2.586139e-33 0 0.0597319 0 0.479357)
(6.15881 0 0 0.07502976 0 0.5670485)
(6.732148 1.04076e-32 0 0.09178417 0 0.6546939)
(7.218261 0 0 0.1098077 0 0.7403585)
(7.611668 -2.23346e-17 0 0.1289086 0 0.8224894)
(7.912752 0 0 0.1489 0 0.8999318)
(8.126248 4.676808e-17 0 0.1696056 0 0.9719065)
(8.25978 0 0 0.1908645 0 1.037963)
(8.322602 -4.671406e-17 0 0.2125321 0 1.097921)
(8.324609 0 0 0.2344808 0 1.151813)
(8.275618 9.008662e-17 0 0.2565989 0 1.199825)
(8.18489 8.754455e-17 0 0.2787888 0 1.24225)
(8.060845 0 0 0.3009655 0 1.279447)
(7.910925 -8.131797e-17 0 0.323054 0 1.311813)
(7.741557 -7.783365e-17 0 0.3449877 0 1.339753)
(7.558184 -1.484247e-16 0 0.3667066 0 1.363669)
(7.365337 0 0 0.3881557 0 1.383945)
(7.166725 0 0 0.4092837 0 1.400938)
(6.965341 0 0 0.4300421 0 1.414979)
(6.763551 0 0 0.4503843 0 1.426363)
(6.563191 1.119819e-16 0 0.470265 0 1.435356)
(6.365649 -3.154558e-16 0 0.4896403 0 1.442188)
(6.171935 0 0 0.5084675 0 1.447063)
(5.982744 1.845324e-16 0 0.5267051 0 1.45015)
(5.798509 0 0 0.5443142 0 1.451597)
(5.619448 1.610208e-16 0 0.5612558 0 1.451521)
(5.445609 0 0 0.5774897 0 1.450013)
(5.276899 0 0 0.5929737 0 1.447139)
(5.113114 0 0 0.6076624 0 1.442938)
(4.953959 0 0 0.6215075 0 1.437429)
(4.799075 0 0 0.6344574 0 1.430609)
(4.648055 0 0 0.6464577 0 1.422459)
(4.500462 -3.855737e-16 0 0.6574512 0 1.412945)
(4.355849 -1.7835e-16 0 0.6673793 0 1.402022)
(4.213782 0 0 0.6761823 0 1.389639)
(4.073851 0 0 0.6838014 0 1.375744)
(3.935689 0 0 0.6901795 0 1.360288)
(3.798984 2.577391e-16 0 0.6952629 0 1.343228)
(3.663485 5.242953e-31 0 0.6990018 0 1.32453)
(3.529002 0 0 0.7013518 0 1.304173)
(3.395407 0 0 0.7022735 0 1.282147)
(3.262624 0 0 0.7017331 0 1.258454)
(3.130632 0 0 0.6997014 0 1.233107)
(2.999457 0 0 0.6961532 0 1.20613)
(2.869174 -4.79716e-32 0 0.6910653 0 1.177555)
(2.739909 0 0 0.6844147 0 1.147424)
(2.611849 0 0 0.6761741 0 1.115785)
(2.485248 -8.211733e-32 0 0.6663068 0 1.082691)
(2.360444 0 0 0.654758 0 1.048197)
(2.23788 0 0 0.6414413 0 1.012351)
(2.118129 0 0 0.6262199 0 0.9751893)
(2.001493 -5.189456e-16 0 0.6091809 0 0.9368951)
(1.888043 -2.313723e-16 0 0.59066 0 0.8978197)
(1.778043 0 0 0.5710128 0 0.8583596)
(1.671958 0 0 0.5506252 0 0.8189717)
(1.570477 -3.246587e-16 0 0.5299209 0 0.7801848)
(1.474509 0 0 0.5093654 0 0.7426058)
(1.38518 0 0 0.4894641 0 0.7069174)
(1.303799 0 0 0.4707539 0 0.6738662)
(1.231813 0 0 0.4537878 0 0.6442413)
(1.170759 0 0 0.4391204 0 0.6188522)
(1.122208 0 0 0.4272909 0 0.598503)
(1.08788 0 0 0.4188405 0 0.5840315)
(1.069511 -2.820295e-16 0 0.4142964 0 0.5762653)
(0.01144814 0 0 1.265955e-06 0 0.0008784971)
(0.1219791 0 0 6.136611e-05 0 0.009366366)
(0.3219467 0 0 0.0003684519 0 0.02474953)
(0.6127436 0 0 0.001206307 0 0.04718232)
(0.9948237 0 0 0.002902715 0 0.07677228)
(1.466209 0 0 0.005785287 0 0.1134653)
(2.021195 -2.261625e-33 0 0.01014689 0 0.1569347)
(2.649963 0 0 0.01622531 0 0.2065365)
(3.339361 -5.413758e-18 0 0.02419938 0 0.2613921)
(4.072324 0 0 0.03416649 0 0.3203995)
(4.80864 0 0 0.04606273 0 0.3938653)
(5.510854 -2.586139e-33 0 0.0597319 0 0.479357)
(6.15881 0 0 0.07502976 0 0.5670485)
(6.732148 1.04076e-32 0 0.09178417 0 0.6546939)
(7.218261 0 0 0.1098077 0 0.7403585)
(7.611668 -2.23346e-17 0 0.1289086 0 0.8224894)
(7.912752 0 0 0.1489 0 0.8999318)
(8.126248 4.676808e-17 0 0.1696056 0 0.9719065)
(8.25978 0 0 0.1908645 0 1.037963)
(8.322602 -4.671406e-17 0 0.2125321 0 1.097921)
(8.324609 0 0 0.2344808 0 1.151813)
(8.275618 9.008662e-17 0 0.2565989 0 1.199825)
(8.18489 8.754455e-17 0 0.2787888 0 1.24225)
(8.060845 0 0 0.3009655 0 1.279447)
(7.910925 -8.131797e-17 0 0.323054 0 1.311813)
(7.741557 -7.783365e-17 0 0.3449877 0 1.339753)
(7.558184 -1.484247e-16 0 0.3667066 0 1.363669)
(7.365337 0 0 0.3881557 0 1.383945)
(7.166725 0 0 0.4092837 0 1.400938)
(6.965341 0 0 0.4300421 0 1.414979)
(6.763551 0 0 0.4503843 0 1.426363)
(6.563191 1.119819e-16 0 0.470265 0 1.435356)
(6.365649 -3.154558e-16 0 0.4896403 0 1.442188)
(6.171935 0 0 0.5084675 0 1.447063)
(5.982744 1.845324e-16 0 0.5267051 0 1.45015)
(5.798509 0 0 0.5443142 0 1.451597)
(5.619448 1.610208e-16 0 0.5612558 0 1.451521)
(5.445609 0 0 0.5774897 0 1.450013)
(5.276899 0 0 0.5929737 0 1.447139)
(5.113114 0 0 0.6076624 0 1.442938)
(4.953959 0 0 0.6215075 0 1.437429)
(4.799075 0 0 0.6344574 0 1.430609)
(4.648055 0 0 0.6464577 0 1.422459)
(4.500462 -3.855737e-16 0 0.6574512 0 1.412945)
(4.355849 -1.7835e-16 0 0.6673793 0 1.402022)
(4.213782 0 0 0.6761823 0 1.389639)
(4.073851 0 0 0.6838014 0 1.375744)
(3.935689 0 0 0.6901795 0 1.360288)
(3.798984 2.577391e-16 0 0.6952629 0 1.343228)
(3.663485 5.242953e-31 0 0.6990018 0 1.32453)
(3.529002 0 0 0.7013518 0 1.304173)
(3.395407 0 0 0.7022735 0 1.282147)
(3.262624 0 0 0.7017331 0 1.258454)
(3.130632 0 0 0.6997014 0 1.233107)
(2.999457 0 0 0.6961532 0 1.20613)
(2.869174 -4.79716e-32 0 0.6910653 0 1.177555)
(2.739909 0 0 0.6844147 0 1.147424)
(2.611849 0 0 0.6761741 0 1.115785)
(2.485248 -8.211733e-32 0 0.6663068 0 1.082691)
(2.360444 0 0 0.654758 0 1.048197)
(2.23788 0 0 0.6414413 0 1.012351)
(2.118129 0 0 0.6262199 0 0.9751893)
(2.001493 -5.189456e-16 0 0.6091809 0 0.9368951)
(1.888043 -2.313723e-16 0 0.59066 0 0.8978197)
(1.778043 0 0 0.5710128 0 0.8583596)
(1.671958 0 0 0.5506252 0 0.8189717)
(1.570477 -3.246587e-16 0 0.5299209 0 0.7801848)
(1.474509 0 0 0.5093654 0 0.7426058)
(1.38518 0 0 0.4894641 0 0.7069174)
(1.303799 0 0 0.4707539 0 0.6738662)
(1.231813 0 0 0.4537878 0 0.6442413)
(1.170759 0 0 0.4391204 0 0.6188522)
(1.122208 0 0 0.4272909 0 0.598503)
(1.08788 0 0 0.4188405 0 0.5840315)
(1.069511 -2.820295e-16 0 0.4142964 0 0.5762653)
)
;
    }
    wall
    {
        type            calculated;
        value           uniform (3.333333e-11 0 0 1e-10 0 6.666667e-11);
    }
    frontAndBack
    {
        type            empty;
    }
    middle
    {
        type            symmetryPlane;
        value           nonuniform List<symmTensor> 2((1.069511 0 0 0.5762653 0 0.5762653) (1.069511 0 0 0.5762653 0 0.5762653));
    }
}


// ************************************************************************* //
