/*--------------------------------*- C++ -*----------------------------------*\
| =========                 |                                                 |
| \\      /  F ield         | foam-extend: Open Source CFD                    |
|  \\    /   O peration     | Version:     4.0                                |
|   \\  /    A nd           | Web:         http://www.foam-extend.org         |
|    \\/     M anipulation  |                                                 |
\*---------------------------------------------------------------------------*/
FoamFile
{
    version     2.0;
    format      ascii;
    class       volSymmTensorField;
    location    "1000";
    object      NLT;
}
// * * * * * * * * * * * * * * * * * * * * * * * * * * * * * * * * * * * * * //

dimensions      [0 0 -1 0 0 0 0];

internalField   nonuniform List<symmTensor> 
150
(
(0.007172906 0 0 8.102463e-07 0 0)
(0.007172906 0 0 8.102464e-07 0 0)
(0.3708343 0 0 0.0001904949 0 0)
(0.3708343 0 0 0.0001904949 0 0)
(2.355206 0 0 0.002750375 0 0)
(2.355206 0 0 0.002750375 0 0)
(8.055821 0 0 0.01616859 0 0)
(8.055821 0 0 0.01616859 0 0)
(19.91287 0 0 0.05917319 0 0)
(19.91287 0 0 0.0591732 0 0)
(39.95602 0 0 0.1603779 0 0)
(39.95602 0 0 0.1603779 0 0)
(69.09911 -8.887759e-18 0 0.3524487 0 0)
(69.09911 8.887759e-18 0 0.3524487 0 0)
(106.9652 0 0 0.6645598 0 0)
(106.9652 0 0 0.6645598 0 0)
(152.1 0 0 1.116925 0 0)
(152.1 5.098605e-17 0 1.116925 0 0)
(212.0341 0 0 1.800114 0 0)
(212.0341 0 0 1.800114 0 0)
(302.379 0 0 2.919127 0 0)
(302.379 0 0 2.919127 0 0)
(402.422 3.435884e-16 0 4.370484 0 0)
(402.422 -3.435885e-16 0 4.370484 0 0)
(510.308 0 0 6.192885 0 0)
(510.308 0 0 6.192885 0 0)
(623.9781 -5.994019e-16 0 8.423799 0 0)
(623.9782 5.994019e-16 0 8.423799 0 0)
(741.6149 0 0 11.10235 0 0)
(741.615 0 0 11.10235 0 0)
(861.516 9.187978e-16 0 14.26622 0 0)
(861.5161 0 0 14.26622 0 0)
(981.9935 0 0 17.9478 0 0)
(981.9936 0 0 17.9478 0 0)
(1101.31 -2.584699e-15 0 22.1701 0 0)
(1101.31 0 0 22.1701 0 0)
(1217.657 0 0 26.94266 0 0)
(1217.657 0 0 26.94266 0 0)
(1329.182 6.807865e-15 0 32.25801 0 0)
(1329.182 -3.403933e-15 0 32.25801 0 0)
(1434.037 0 0 38.08911 0 0)
(1434.037 0 0 38.08911 0 0)
(1530.457 -8.478891e-15 0 44.3879 0 0)
(1530.457 0 0 44.3879 0 0)
(1616.828 -9.283673e-15 0 51.08517 0 0)
(1616.828 0 0 51.08517 0 0)
(1691.755 0 0 58.09158 0 0)
(1691.755 0 0 58.09158 0 0)
(1754.105 1.074082e-14 0 65.29973 0 0)
(1754.105 0 0 65.29973 0 0)
(1803.033 1.135888e-14 0 72.58699 0 0)
(1803.033 0 0 72.58699 0 0)
(1837.987 2.376636e-14 0 79.81885 0 0)
(1837.987 0 0 79.81885 0 0)
(1858.698 0 0 86.85267 0 0)
(1858.698 0 0 86.85267 0 0)
(1865.159 0 0 93.5415 0 0)
(1865.159 0 0 93.5415 0 0)
(1857.595 0 0 99.73807 0 0)
(1857.595 0 0 99.73807 0 0)
(1836.436 -2.568515e-14 0 105.2987 0 0)
(1836.436 2.568515e-14 0 105.2987 0 0)
(1802.284 -2.554736e-14 0 110.087 0 0)
(1802.284 0 0 110.087 0 0)
(1755.891 7.549236e-14 0 113.9781 0 0)
(1755.891 0 0 113.9781 0 0)
(1698.132 0 0 116.8617 0 0)
(1698.132 0 0 116.8617 0 0)
(1629.99 -4.741824e-14 0 118.6462 0 0)
(1629.99 0 0 118.6462 0 0)
(1552.551 0 0 119.2627 0 0)
(1552.551 0 0 119.2626 0 0)
(1466.989 -8.585227e-14 0 118.6668 0 0)
(1466.989 4.292613e-14 0 118.6668 0 0)
(1374.566 0 0 116.8426 0 0)
(1374.566 0 0 116.8425 0 0)
(1276.64 0 0 113.8054 0 0)
(1276.64 0 0 113.8054 0 0)
(1174.677 0 0 109.6063 0 0)
(1174.677 0 0 109.6062 0 0)
(1070.263 0 0 104.3355 0 0)
(1070.262 0 0 104.3355 0 0)
(965.1075 0 0 98.12612 0 0)
(965.1072 0 0 98.12608 0 0)
(861.0363 0 0 91.15505 0 0)
(861.036 0 0 91.15501 0 0)
(759.9431 8.53732e-14 0 83.64023 0 0)
(759.9428 0 0 83.64019 0 0)
(663.7014 3.681925e-14 0 75.83122 0 0)
(663.7011 0 0 75.83118 0 0)
(574.0239 0 0 67.99143 0 0)
(574.0236 0 0 67.9914 0 0)
(492.291 0 0 60.3731 0 0)
(492.2907 0 0 60.37307 0 0)
(419.3932 0 0 53.18976 0 0)
(419.3929 0 0 53.18974 0 0)
(355.6442 -3.706735e-14 0 46.59427 0 0)
(355.644 0 0 46.59424 0 0)
(300.8033 -3.078071e-14 0 40.66953 0 0)
(300.8032 3.07807e-14 0 40.66951 0 0)
(254.1977 0 0 35.43396 0 0)
(254.1976 0 0 35.43394 0 0)
(214.8961 0 0 30.8574 0 0)
(214.8961 0 0 30.85739 0 0)
(181.8759 0 0 26.88039 0 0)
(181.8759 0 0 26.88038 0 0)
(154.145 0 0 23.43092 0 0)
(154.145 0 0 23.43091 0 0)
(130.8115 0 0 20.43588 0 0)
(130.8115 0 0 20.43587 0 0)
(111.1112 2.00095e-14 0 17.82762 0 0)
(111.1112 -2.00095e-14 0 17.82762 0 0)
(94.40812 0 0 15.54673 0 0)
(94.40811 0 0 15.54673 0 0)
(80.18263 0 0 13.54263 0 0)
(80.18263 0 0 13.54263 0 0)
(68.01406 1.137847e-14 0 11.77307 0 0)
(68.01405 -1.137847e-14 0 11.77306 0 0)
(57.56597 0 0 10.20352 0 0)
(57.56597 0 0 10.20352 0 0)
(48.56616 0 0 8.805359 0 0)
(48.56616 0 0 8.805359 0 0)
(40.77867 0 0 7.552028 0 0)
(40.77867 0 0 7.552028 0 0)
(34.0203 2.03518e-14 0 6.426081 0 0)
(34.0203 0 0 6.426081 0 0)
(28.14406 0 0 5.415609 0 0)
(28.14406 8.158765e-15 0 5.415609 0 0)
(23.02183 0 0 4.508409 0 0)
(23.02183 0 0 4.508409 0 0)
(18.55448 0 0 3.694892 0 0)
(18.55448 0 0 3.694892 0 0)
(14.66947 0 0 2.968506 0 0)
(14.66947 7.701879e-15 0 2.968506 0 0)
(11.30677 0 0 2.323585 0 0)
(11.30677 0 0 2.323585 0 0)
(8.441933 0 0 1.76065 0 0)
(8.441933 0 0 1.76065 0 0)
(5.989138 0 0 1.266675 0 0)
(5.989138 0 0 1.266675 0 0)
(4.102336 0 0 0.8789219 0 0)
(4.102337 0 0 0.8789219 0 0)
(2.195725 0 0 0.475879 0 0)
(2.195725 0 0 0.475879 0 0)
(2.037973 0 0 0.4459438 0 0)
(2.037973 0 0 0.4459438 0 0)
(-0.7963173 -0 -0 -0.175479 -0 -0)
(-0.7963169 -0 -0 -0.1754789 -0 -0)
(0.7672566 5.910919e-16 0 0.1697313 0 0)
(0.7672567 0 0 0.1697313 0 0)
)
;

boundaryField
{
    leftandright
    {
        type            cyclic;
        value           nonuniform List<symmTensor> 
150
(
(0.007172906 0 0 8.102464e-07 0 0)
(0.3708343 0 0 0.0001904949 0 0)
(2.355206 0 0 0.002750375 0 0)
(8.055821 0 0 0.01616859 0 0)
(19.91287 0 0 0.0591732 0 0)
(39.95602 0 0 0.1603779 0 0)
(69.09911 4.887299e-33 0 0.3524487 0 0)
(106.9652 0 0 0.6645598 0 0)
(152.1 2.549302e-17 0 1.116925 0 0)
(212.0341 0 0 1.800114 0 0)
(302.379 0 0 2.919127 0 0)
(402.422 2.693519e-32 0 4.370484 0 0)
(510.308 0 0 6.192885 0 0)
(623.9781 -1.55747e-31 0 8.423799 0 0)
(741.6149 0 0 11.10235 0 0)
(861.516 4.593989e-16 0 14.26622 0 0)
(981.9935 0 0 17.9478 0 0)
(1101.31 -1.292349e-15 0 22.1701 0 0)
(1217.657 0 0 26.94266 0 0)
(1329.182 1.701966e-15 0 32.25801 0 0)
(1434.037 0 0 38.08911 0 0)
(1530.457 -4.239446e-15 0 44.3879 0 0)
(1616.828 -4.641837e-15 0 51.08517 0 0)
(1691.755 0 0 58.09158 0 0)
(1754.105 5.37041e-15 0 65.29973 0 0)
(1803.033 5.679438e-15 0 72.58699 0 0)
(1837.987 1.188318e-14 0 79.81885 0 0)
(1858.698 0 0 86.85267 0 0)
(1865.159 0 0 93.5415 0 0)
(1857.595 0 0 99.73807 0 0)
(1836.436 0 0 105.2987 0 0)
(1802.284 -1.277368e-14 0 110.087 0 0)
(1755.891 3.774618e-14 0 113.9781 0 0)
(1698.132 0 0 116.8617 0 0)
(1629.99 -2.370912e-14 0 118.6462 0 0)
(1552.551 0 0 119.2626 0 0)
(1466.989 -2.146307e-14 0 118.6668 0 0)
(1374.566 0 0 116.8426 0 0)
(1276.64 0 0 113.8054 0 0)
(1174.677 0 0 109.6062 0 0)
(1070.263 0 0 104.3355 0 0)
(965.1074 0 0 98.1261 0 0)
(861.0361 0 0 91.15503 0 0)
(759.943 4.268659e-14 0 83.64021 0 0)
(663.7012 1.840962e-14 0 75.8312 0 0)
(574.0237 0 0 67.99141 0 0)
(492.2909 0 0 60.37309 0 0)
(419.3931 0 0 53.18975 0 0)
(355.6441 -1.853367e-14 0 46.59425 0 0)
(300.8032 -3.408776e-29 0 40.66952 0 0)
(254.1976 0 0 35.43395 0 0)
(214.8961 0 0 30.85739 0 0)
(181.8759 0 0 26.88039 0 0)
(154.145 0 0 23.43091 0 0)
(130.8115 0 0 20.43588 0 0)
(111.1112 1.757939e-30 0 17.82762 0 0)
(94.40812 0 0 15.54673 0 0)
(80.18263 0 0 13.54263 0 0)
(68.01406 2.321828e-30 0 11.77307 0 0)
(57.56597 0 0 10.20352 0 0)
(48.56616 0 0 8.805359 0 0)
(40.77867 0 0 7.552028 0 0)
(34.0203 1.01759e-14 0 6.426081 0 0)
(28.14406 4.079382e-15 0 5.415609 0 0)
(23.02183 0 0 4.508409 0 0)
(18.55448 0 0 3.694892 0 0)
(14.66947 3.850939e-15 0 2.968506 0 0)
(11.30677 0 0 2.323585 0 0)
(8.441933 0 0 1.76065 0 0)
(5.989138 0 0 1.266675 0 0)
(4.102337 0 0 0.8789219 0 0)
(2.195725 0 0 0.475879 0 0)
(2.037973 0 0 0.4459438 0 0)
(-0.7963171 -0 -0 -0.1754789 -0 -0)
(0.7672566 2.95546e-16 0 0.1697313 0 0)
(0.007172906 0 0 8.102464e-07 0 0)
(0.3708343 0 0 0.0001904949 0 0)
(2.355206 0 0 0.002750375 0 0)
(8.055821 0 0 0.01616859 0 0)
(19.91287 0 0 0.0591732 0 0)
(39.95602 0 0 0.1603779 0 0)
(69.09911 5.430332e-33 0 0.3524487 0 0)
(106.9652 0 0 0.6645598 0 0)
(152.1 2.549302e-17 0 1.116925 0 0)
(212.0341 0 0 1.800114 0 0)
(302.379 0 0 2.919127 0 0)
(402.422 2.693519e-32 0 4.370484 0 0)
(510.308 0 0 6.192885 0 0)
(623.9781 -1.55747e-31 0 8.423799 0 0)
(741.6149 0 0 11.10235 0 0)
(861.516 4.593989e-16 0 14.26622 0 0)
(981.9935 0 0 17.9478 0 0)
(1101.31 -1.292349e-15 0 22.1701 0 0)
(1217.657 0 0 26.94266 0 0)
(1329.182 1.701966e-15 0 32.25801 0 0)
(1434.037 0 0 38.08911 0 0)
(1530.457 -4.239446e-15 0 44.3879 0 0)
(1616.828 -4.641837e-15 0 51.08517 0 0)
(1691.755 0 0 58.09158 0 0)
(1754.105 5.37041e-15 0 65.29973 0 0)
(1803.033 5.679438e-15 0 72.58699 0 0)
(1837.987 1.188318e-14 0 79.81885 0 0)
(1858.698 0 0 86.85267 0 0)
(1865.159 0 0 93.5415 0 0)
(1857.595 0 0 99.73807 0 0)
(1836.436 0 0 105.2987 0 0)
(1802.284 -1.277368e-14 0 110.087 0 0)
(1755.891 3.774618e-14 0 113.9781 0 0)
(1698.132 0 0 116.8617 0 0)
(1629.99 -2.370912e-14 0 118.6462 0 0)
(1552.551 0 0 119.2626 0 0)
(1466.989 -2.146307e-14 0 118.6668 0 0)
(1374.566 0 0 116.8426 0 0)
(1276.64 0 0 113.8054 0 0)
(1174.677 0 0 109.6062 0 0)
(1070.263 0 0 104.3355 0 0)
(965.1074 0 0 98.1261 0 0)
(861.0361 0 0 91.15503 0 0)
(759.943 4.268659e-14 0 83.64021 0 0)
(663.7012 1.840962e-14 0 75.8312 0 0)
(574.0237 0 0 67.99141 0 0)
(492.2909 0 0 60.37309 0 0)
(419.3931 0 0 53.18975 0 0)
(355.6441 -1.853367e-14 0 46.59425 0 0)
(300.8032 -3.408776e-29 0 40.66952 0 0)
(254.1976 0 0 35.43395 0 0)
(214.8961 0 0 30.85739 0 0)
(181.8759 0 0 26.88039 0 0)
(154.145 0 0 23.43091 0 0)
(130.8115 0 0 20.43588 0 0)
(111.1112 1.757939e-30 0 17.82762 0 0)
(94.40812 0 0 15.54673 0 0)
(80.18263 0 0 13.54263 0 0)
(68.01406 2.321828e-30 0 11.77307 0 0)
(57.56597 0 0 10.20352 0 0)
(48.56616 0 0 8.805359 0 0)
(40.77867 0 0 7.552028 0 0)
(34.0203 1.01759e-14 0 6.426081 0 0)
(28.14406 4.079382e-15 0 5.415609 0 0)
(23.02183 0 0 4.508409 0 0)
(18.55448 0 0 3.694892 0 0)
(14.66947 3.850939e-15 0 2.968506 0 0)
(11.30677 0 0 2.323585 0 0)
(8.441933 0 0 1.76065 0 0)
(5.989138 0 0 1.266675 0 0)
(4.102337 0 0 0.8789219 0 0)
(2.195725 0 0 0.475879 0 0)
(2.037973 0 0 0.4459438 0 0)
(-0.7963171 -0 -0 -0.1754789 -0 -0)
(0.7672566 2.95546e-16 0 0.1697313 0 0)
)
;
    }
    wall
    {
        type            calculated;
        value           nonuniform List<symmTensor> 2((5.460603e-07 0 0 3.003331e-07 0 0) (5.460603e-07 0 0 3.003331e-07 0 0));
    }
    frontAndBack
    {
        type            empty;
    }
    middle
    {
        type            symmetryPlane;
        value           nonuniform List<symmTensor> 2((0.7672566 0 0 0.1697313 0 0) (0.7672567 0 0 0.1697313 0 0));
    }
}


// ************************************************************************* //
