/*--------------------------------*- C++ -*----------------------------------*\
| =========                 |                                                 |
| \\      /  F ield         | foam-extend: Open Source CFD                    |
|  \\    /   O peration     | Version:     4.0                                |
|   \\  /    A nd           | Web:         http://www.foam-extend.org         |
|    \\/     M anipulation  |                                                 |
\*---------------------------------------------------------------------------*/
FoamFile
{
    version     2.0;
    format      ascii;
    class       volSymmTensorField;
    location    "1000";
    object      NLTPlus;
}
// * * * * * * * * * * * * * * * * * * * * * * * * * * * * * * * * * * * * * //

dimensions      [0 2 -2 0 0 0 0];

internalField   nonuniform List<symmTensor> 
150
(
(1.815925e-05 0 0 2.051257e-09 0 0)
(1.815926e-05 0 0 2.051257e-09 0 0)
(0.0009388211 0 0 4.822656e-07 0 0)
(0.0009388211 0 0 4.822656e-07 0 0)
(0.005962546 0 0 6.962974e-06 0 0)
(0.005962546 0 0 6.962974e-06 0 0)
(0.02039448 0 0 4.093313e-05 0 0)
(0.02039448 0 0 4.093313e-05 0 0)
(0.05041233 0 0 0.0001498056 0 0)
(0.05041233 0 0 0.0001498056 0 0)
(0.1011545 0 0 0.0004060201 0 0)
(0.1011545 0 0 0.0004060201 0 0)
(0.1749344 -2.250065e-20 0 0.0008922752 0 0)
(0.1749345 2.250066e-20 0 0.0008922752 0 0)
(0.2707979 0 0 0.00168243 0 0)
(0.2707979 0 0 0.00168243 0 0)
(0.3850633 0 0 0.002827657 0 0)
(0.3850633 1.290786e-19 0 0.002827658 0 0)
(0.5367953 0 0 0.004557251 0 0)
(0.5367953 0 0 0.004557251 0 0)
(0.7655164 0 0 0.007390195 0 0)
(0.7655164 0 0 0.007390196 0 0)
(1.01879 8.698442e-19 0 0.01106452 0 0)
(1.01879 -8.698442e-19 0 0.01106452 0 0)
(1.291919 0 0 0.01567819 0 0)
(1.291919 0 0 0.01567819 0 0)
(1.579691 -1.517473e-18 0 0.02132607 0 0)
(1.579692 1.517473e-18 0 0.02132607 0 0)
(1.877506 0 0 0.02810722 0 0)
(1.877506 0 0 0.02810722 0 0)
(2.181053 2.32607e-18 0 0.036117 0 0)
(2.181053 0 0 0.036117 0 0)
(2.48606 0 0 0.04543746 0 0)
(2.48606 0 0 0.04543746 0 0)
(2.788126 -6.543541e-18 0 0.05612683 0 0)
(2.788126 0 0 0.05612684 0 0)
(3.082677 0 0 0.06820926 0 0)
(3.082677 0 0 0.06820926 0 0)
(3.365018 1.72351e-17 0 0.08166585 0 0)
(3.365018 -8.617551e-18 0 0.08166585 0 0)
(3.630474 0 0 0.09642813 0 0)
(3.630474 0 0 0.09642813 0 0)
(3.874575 -2.146555e-17 0 0.1123744 0 0)
(3.874575 0 0 0.1123744 0 0)
(4.093236 -2.350297e-17 0 0.1293295 0 0)
(4.093236 0 0 0.1293296 0 0)
(4.282924 0 0 0.1470673 0 0)
(4.282924 0 0 0.1470673 0 0)
(4.440772 2.719195e-17 0 0.1653158 0 0)
(4.440772 0 0 0.1653158 0 0)
(4.56464 2.875665e-17 0 0.1837645 0 0)
(4.56464 0 0 0.1837645 0 0)
(4.653132 6.016799e-17 0 0.202073 0 0)
(4.653132 0 0 0.202073 0 0)
(4.705565 0 0 0.2198802 0 0)
(4.705565 0 0 0.2198802 0 0)
(4.721921 0 0 0.2368139 0 0)
(4.721921 0 0 0.2368139 0 0)
(4.702772 0 0 0.2525014 0 0)
(4.702772 0 0 0.2525014 0 0)
(4.649204 -6.502571e-17 0 0.2665789 0 0)
(4.649204 6.502571e-17 0 0.2665789 0 0)
(4.562745 -6.467685e-17 0 0.2787013 0 0)
(4.562745 0 0 0.2787013 0 0)
(4.445294 1.911199e-16 0 0.2885521 0 0)
(4.445294 0 0 0.2885521 0 0)
(4.299068 0 0 0.2958524 0 0)
(4.299068 0 0 0.2958524 0 0)
(4.126557 -1.200462e-16 0 0.3003702 0 0)
(4.126557 0 0 0.3003702 0 0)
(3.930509 0 0 0.3019308 0 0)
(3.930509 0 0 0.3019307 0 0)
(3.713897 -2.173475e-16 0 0.3004223 0 0)
(3.713896 1.086737e-16 0 0.3004222 0 0)
(3.479914 0 0 0.295804 0 0)
(3.479914 0 0 0.2958039 0 0)
(3.232001 0 0 0.288115 0 0)
(3.232 0 0 0.2881149 0 0)
(2.973867 0 0 0.2774842 0 0)
(2.973866 0 0 0.2774841 0 0)
(2.709526 0 0 0.2641405 0 0)
(2.709525 0 0 0.2641404 0 0)
(2.44331 0 0 0.2484205 0 0)
(2.443309 0 0 0.2484205 0 0)
(2.179839 0 0 0.2307723 0 0)
(2.179838 0 0 0.2307722 0 0)
(1.923907 2.161347e-16 0 0.2117474 0 0)
(1.923906 0 0 0.2117473 0 0)
(1.680257 9.321328e-17 0 0.1919778 0 0)
(1.680256 0 0 0.1919777 0 0)
(1.453225 0 0 0.1721302 0 0)
(1.453224 0 0 0.1721301 0 0)
(1.246306 0 0 0.1528433 0 0)
(1.246306 0 0 0.1528432 0 0)
(1.061755 0 0 0.1346576 0 0)
(1.061754 0 0 0.1346576 0 0)
(0.900365 -9.384138e-17 0 0.1179602 0 0)
(0.9003646 0 0 0.1179601 0 0)
(0.7615274 -7.792586e-17 0 0.1029608 0 0)
(0.761527 7.792582e-17 0 0.1029608 0 0)
(0.6435384 0 0 0.08970622 0 0)
(0.6435381 0 0 0.08970619 0 0)
(0.5440408 0 0 0.07811999 0 0)
(0.5440406 0 0 0.07811996 0 0)
(0.4604454 0 0 0.06805163 0 0)
(0.4604453 0 0 0.06805161 0 0)
(0.3902406 0 0 0.05931878 0 0)
(0.3902405 0 0 0.05931876 0 0)
(0.3311685 0 0 0.0517364 0 0)
(0.3311684 0 0 0.05173639 0 0)
(0.2812942 5.065696e-17 0 0.04513322 0 0)
(0.2812941 -5.065695e-17 0 0.04513321 0 0)
(0.2390079 0 0 0.03935881 0 0)
(0.2390079 0 0 0.0393588 0 0)
(0.202994 0 0 0.03428515 0 0)
(0.202994 0 0 0.03428514 0 0)
(0.1721875 2.880626e-17 0 0.02980523 0 0)
(0.1721875 -2.880626e-17 0 0.02980523 0 0)
(0.1457366 0 0 0.02583169 0 0)
(0.1457366 0 0 0.02583169 0 0)
(0.1229523 0 0 0.02229205 0 0)
(0.1229523 0 0 0.02229205 0 0)
(0.1032371 0 0 0.01911906 0 0)
(0.1032371 0 0 0.01911906 0 0)
(0.08612733 5.152354e-17 0 0.01626856 0 0)
(0.08612733 0 0 0.01626856 0 0)
(0.07125079 0 0 0.0137104 0 0)
(0.07125079 2.06551e-17 0 0.0137104 0 0)
(0.05828312 0 0 0.01141369 0 0)
(0.05828312 0 0 0.01141369 0 0)
(0.04697336 0 0 0.009354158 0 0)
(0.04697336 0 0 0.009354158 0 0)
(0.03713791 0 0 0.007515205 0 0)
(0.03713791 1.949843e-17 0 0.007515205 0 0)
(0.02862474 0 0 0.005882493 0 0)
(0.02862474 0 0 0.005882493 0 0)
(0.02137198 0 0 0.004457341 0 0)
(0.02137198 0 0 0.004457342 0 0)
(0.01516237 0 0 0.003206771 0 0)
(0.01516237 0 0 0.003206771 0 0)
(0.01038566 0 0 0.002225119 0 0)
(0.01038566 0 0 0.002225119 0 0)
(0.005558797 0 0 0.001204757 0 0)
(0.005558798 0 0 0.001204757 0 0)
(0.005159425 0 0 0.001128972 0 0)
(0.005159426 0 0 0.001128972 0 0)
(-0.002015993 -0 -0 -0.0004442505 -0 -0)
(-0.002015992 -0 -0 -0.0004442503 -0 -0)
(0.001942422 1.496435e-18 0 0.0004296995 0 0)
(0.001942422 0 0 0.0004296996 0 0)
)
;

boundaryField
{
    leftandright
    {
        type            cyclic;
        value           nonuniform List<symmTensor> 
150
(
(1.815926e-05 0 0 2.051257e-09 0 0)
(0.0009388211 0 0 4.822656e-07 0 0)
(0.005962546 0 0 6.962974e-06 0 0)
(0.02039448 0 0 4.093313e-05 0 0)
(0.05041233 0 0 0.0001498056 0 0)
(0.1011545 0 0 0.0004060201 0 0)
(0.1749344 1.237291e-35 0 0.0008922752 0 0)
(0.2707979 0 0 0.00168243 0 0)
(0.3850633 6.45393e-20 0 0.002827658 0 0)
(0.5367953 0 0 0.004557251 0 0)
(0.7655164 0 0 0.007390196 0 0)
(1.01879 6.819035e-35 0 0.01106452 0 0)
(1.291919 0 0 0.01567819 0 0)
(1.579692 -3.942962e-34 0 0.02132607 0 0)
(1.877506 0 0 0.02810722 0 0)
(2.181053 1.163035e-18 0 0.036117 0 0)
(2.48606 0 0 0.04543746 0 0)
(2.788126 -3.271771e-18 0 0.05612684 0 0)
(3.082677 0 0 0.06820926 0 0)
(3.365018 4.308775e-18 0 0.08166585 0 0)
(3.630474 0 0 0.09642813 0 0)
(3.874575 -1.073277e-17 0 0.1123744 0 0)
(4.093236 -1.175149e-17 0 0.1293296 0 0)
(4.282924 0 0 0.1470673 0 0)
(4.440772 1.359598e-17 0 0.1653158 0 0)
(4.56464 1.437832e-17 0 0.1837645 0 0)
(4.653132 3.0084e-17 0 0.202073 0 0)
(4.705565 0 0 0.2198802 0 0)
(4.721921 0 0 0.2368139 0 0)
(4.702772 0 0 0.2525014 0 0)
(4.649204 0 0 0.2665789 0 0)
(4.562745 -3.233843e-17 0 0.2787013 0 0)
(4.445294 9.555995e-17 0 0.2885521 0 0)
(4.299068 0 0 0.2958524 0 0)
(4.126557 -6.002309e-17 0 0.3003702 0 0)
(3.930509 0 0 0.3019308 0 0)
(3.713896 -5.433688e-17 0 0.3004223 0 0)
(3.479914 0 0 0.2958039 0 0)
(3.232 0 0 0.2881149 0 0)
(2.973866 0 0 0.2774842 0 0)
(2.709525 0 0 0.2641404 0 0)
(2.44331 0 0 0.2484205 0 0)
(2.179838 0 0 0.2307722 0 0)
(1.923906 1.080673e-16 0 0.2117474 0 0)
(1.680256 4.660663e-17 0 0.1919777 0 0)
(1.453225 0 0 0.1721302 0 0)
(1.246306 0 0 0.1528433 0 0)
(1.061755 0 0 0.1346576 0 0)
(0.9003648 -4.692068e-17 0 0.1179601 0 0)
(0.7615272 -8.629812e-32 0 0.1029608 0 0)
(0.6435383 0 0 0.0897062 0 0)
(0.5440407 0 0 0.07811998 0 0)
(0.4604453 0 0 0.06805162 0 0)
(0.3902405 0 0 0.05931877 0 0)
(0.3311684 0 0 0.0517364 0 0)
(0.2812941 4.450479e-33 0 0.04513322 0 0)
(0.2390079 0 0 0.03935881 0 0)
(0.202994 0 0 0.03428514 0 0)
(0.1721875 5.878045e-33 0 0.02980523 0 0)
(0.1457366 0 0 0.02583169 0 0)
(0.1229523 0 0 0.02229205 0 0)
(0.1032371 0 0 0.01911906 0 0)
(0.08612733 2.576177e-17 0 0.01626856 0 0)
(0.07125079 1.032755e-17 0 0.0137104 0 0)
(0.05828312 0 0 0.01141369 0 0)
(0.04697336 0 0 0.009354158 0 0)
(0.03713791 9.749214e-18 0 0.007515205 0 0)
(0.02862474 0 0 0.005882493 0 0)
(0.02137198 0 0 0.004457341 0 0)
(0.01516237 0 0 0.003206771 0 0)
(0.01038566 0 0 0.002225119 0 0)
(0.005558797 0 0 0.001204757 0 0)
(0.005159426 0 0 0.001128972 0 0)
(-0.002015993 -0 -0 -0.0004442504 -0 -0)
(0.001942422 7.482176e-19 0 0.0004296995 0 0)
(1.815926e-05 0 0 2.051257e-09 0 0)
(0.0009388211 0 0 4.822656e-07 0 0)
(0.005962546 0 0 6.962974e-06 0 0)
(0.02039448 0 0 4.093313e-05 0 0)
(0.05041233 0 0 0.0001498056 0 0)
(0.1011545 0 0 0.0004060201 0 0)
(0.1749344 1.374768e-35 0 0.0008922752 0 0)
(0.2707979 0 0 0.00168243 0 0)
(0.3850633 6.45393e-20 0 0.002827658 0 0)
(0.5367953 0 0 0.004557251 0 0)
(0.7655164 0 0 0.007390196 0 0)
(1.01879 6.819035e-35 0 0.01106452 0 0)
(1.291919 0 0 0.01567819 0 0)
(1.579692 -3.942962e-34 0 0.02132607 0 0)
(1.877506 0 0 0.02810722 0 0)
(2.181053 1.163035e-18 0 0.036117 0 0)
(2.48606 0 0 0.04543746 0 0)
(2.788126 -3.271771e-18 0 0.05612684 0 0)
(3.082677 0 0 0.06820926 0 0)
(3.365018 4.308775e-18 0 0.08166585 0 0)
(3.630474 0 0 0.09642813 0 0)
(3.874575 -1.073277e-17 0 0.1123744 0 0)
(4.093236 -1.175149e-17 0 0.1293296 0 0)
(4.282924 0 0 0.1470673 0 0)
(4.440772 1.359598e-17 0 0.1653158 0 0)
(4.56464 1.437832e-17 0 0.1837645 0 0)
(4.653132 3.0084e-17 0 0.202073 0 0)
(4.705565 0 0 0.2198802 0 0)
(4.721921 0 0 0.2368139 0 0)
(4.702772 0 0 0.2525014 0 0)
(4.649204 0 0 0.2665789 0 0)
(4.562745 -3.233843e-17 0 0.2787013 0 0)
(4.445294 9.555995e-17 0 0.2885521 0 0)
(4.299068 0 0 0.2958524 0 0)
(4.126557 -6.002309e-17 0 0.3003702 0 0)
(3.930509 0 0 0.3019308 0 0)
(3.713896 -5.433688e-17 0 0.3004223 0 0)
(3.479914 0 0 0.2958039 0 0)
(3.232 0 0 0.2881149 0 0)
(2.973866 0 0 0.2774842 0 0)
(2.709525 0 0 0.2641404 0 0)
(2.44331 0 0 0.2484205 0 0)
(2.179838 0 0 0.2307722 0 0)
(1.923906 1.080673e-16 0 0.2117474 0 0)
(1.680256 4.660663e-17 0 0.1919777 0 0)
(1.453225 0 0 0.1721302 0 0)
(1.246306 0 0 0.1528433 0 0)
(1.061755 0 0 0.1346576 0 0)
(0.9003648 -4.692068e-17 0 0.1179601 0 0)
(0.7615272 -8.629812e-32 0 0.1029608 0 0)
(0.6435383 0 0 0.0897062 0 0)
(0.5440407 0 0 0.07811998 0 0)
(0.4604453 0 0 0.06805162 0 0)
(0.3902405 0 0 0.05931877 0 0)
(0.3311684 0 0 0.0517364 0 0)
(0.2812941 4.450479e-33 0 0.04513322 0 0)
(0.2390079 0 0 0.03935881 0 0)
(0.202994 0 0 0.03428514 0 0)
(0.1721875 5.878045e-33 0 0.02980523 0 0)
(0.1457366 0 0 0.02583169 0 0)
(0.1229523 0 0 0.02229205 0 0)
(0.1032371 0 0 0.01911906 0 0)
(0.08612733 2.576177e-17 0 0.01626856 0 0)
(0.07125079 1.032755e-17 0 0.0137104 0 0)
(0.05828312 0 0 0.01141369 0 0)
(0.04697336 0 0 0.009354158 0 0)
(0.03713791 9.749214e-18 0 0.007515205 0 0)
(0.02862474 0 0 0.005882493 0 0)
(0.02137198 0 0 0.004457341 0 0)
(0.01516237 0 0 0.003206771 0 0)
(0.01038566 0 0 0.002225119 0 0)
(0.005558797 0 0 0.001204757 0 0)
(0.005159426 0 0 0.001128972 0 0)
(-0.002015993 -0 -0 -0.0004442504 -0 -0)
(0.001942422 7.482176e-19 0 0.0004296995 0 0)
)
;
    }
    wall
    {
        type            calculated;
        value           nonuniform List<symmTensor> 2((1.382431e-09 0 0 7.603371e-10 0 0) (1.382431e-09 0 0 7.603371e-10 0 0));
    }
    frontAndBack
    {
        type            empty;
    }
    middle
    {
        type            symmetryPlane;
        value           nonuniform List<symmTensor> 2((0.001942422 0 0 0.0004296995 0 0) (0.001942422 0 0 0.0004296996 0 0));
    }
}


// ************************************************************************* //
