/*--------------------------------*- C++ -*----------------------------------*\
| =========                 |                                                 |
| \\      /  F ield         | foam-extend: Open Source CFD                    |
|  \\    /   O peration     | Version:     4.0                                |
|   \\  /    A nd           | Web:         http://www.foam-extend.org         |
|    \\/     M anipulation  |                                                 |
\*---------------------------------------------------------------------------*/
FoamFile
{
    version     2.0;
    format      ascii;
    class       volScalarField;
    location    "1000";
    object      nut;
}
// * * * * * * * * * * * * * * * * * * * * * * * * * * * * * * * * * * * * * //

dimensions      [0 2 -1 0 0 0 0];

internalField   nonuniform List<scalar> 
150
(
1.0257e-08
1.0257e-08
5.312154e-07
5.312154e-07
3.383062e-06
3.383062e-06
1.16282e-05
1.16282e-05
2.898425e-05
2.898425e-05
5.890086e-05
5.890086e-05
0.000103609
0.000103609
0.000163672
0.000163672
0.0002383007
0.0002383007
0.0003430112
0.0003430112
0.0005111851
0.0005111851
0.0007165833
0.0007165833
0.0009603391
0.0009603391
0.001244223
0.001244223
0.001570528
0.001570528
0.001941946
0.001941946
0.002361464
0.002361465
0.002832298
0.002832298
0.003357832
0.003357832
0.003941574
0.003941574
0.004587108
0.004587108
0.00529805
0.00529805
0.006078001
0.006078001
0.006930501
0.006930501
0.007858974
0.007858975
0.008866677
0.008866677
0.009956639
0.00995664
0.01113161
0.01113161
0.01239397
0.01239397
0.01374573
0.01374573
0.0151884
0.0151884
0.01672299
0.01672299
0.01834997
0.01834997
0.0200692
0.0200692
0.02188002
0.02188002
0.0237812
0.0237812
0.02577093
0.02577093
0.02784679
0.02784679
0.03000573
0.03000573
0.03224409
0.03224409
0.03455764
0.03455764
0.03694166
0.03694166
0.03939102
0.03939102
0.04190026
0.04190026
0.04446367
0.04446367
0.04707539
0.04707539
0.04972941
0.04972941
0.05241961
0.05241961
0.05513978
0.05513978
0.05788358
0.05788358
0.06064454
0.06064454
0.06341607
0.06341607
0.06619144
0.06619144
0.06896378
0.06896378
0.07172604
0.07172604
0.07447084
0.07447084
0.07719024
0.07719024
0.07987524
0.07987524
0.08251487
0.08251487
0.08509473
0.08509473
0.08759449
0.08759449
0.08998393
0.08998393
0.0922611
0.0922611
0.09446174
0.09446174
0.09662833
0.09662833
0.09881011
0.09881011
0.1010612
0.1010612
0.1034355
0.1034355
0.1059766
0.1059766
0.1087005
0.1087005
0.1115717
0.1115717
0.1144732
0.1144732
0.1171837
0.1171837
0.1193724
0.1193724
0.1206494
0.1206494
)
;

boundaryField
{
    leftandright
    {
        type            cyclic;
        value           nonuniform List<scalar> 
150
(
1.0257e-08
5.312154e-07
3.383062e-06
1.16282e-05
2.898425e-05
5.890086e-05
0.000103609
0.000163672
0.0002383007
0.0003430112
0.0005111851
0.0007165833
0.0009603391
0.001244223
0.001570528
0.001941946
0.002361465
0.002832298
0.003357832
0.003941574
0.004587108
0.00529805
0.006078001
0.006930501
0.007858975
0.008866677
0.00995664
0.01113161
0.01239397
0.01374573
0.0151884
0.01672299
0.01834997
0.0200692
0.02188002
0.0237812
0.02577093
0.02784679
0.03000573
0.03224409
0.03455764
0.03694166
0.03939102
0.04190026
0.04446367
0.04707539
0.04972941
0.05241961
0.05513978
0.05788358
0.06064454
0.06341607
0.06619144
0.06896378
0.07172604
0.07447084
0.07719024
0.07987524
0.08251487
0.08509473
0.08759449
0.08998393
0.0922611
0.09446174
0.09662833
0.09881011
0.1010612
0.1034355
0.1059766
0.1087005
0.1115717
0.1144732
0.1171837
0.1193724
0.1206494
1.0257e-08
5.312154e-07
3.383062e-06
1.16282e-05
2.898425e-05
5.890086e-05
0.000103609
0.000163672
0.0002383007
0.0003430112
0.0005111851
0.0007165833
0.0009603391
0.001244223
0.001570528
0.001941946
0.002361465
0.002832298
0.003357832
0.003941574
0.004587108
0.00529805
0.006078001
0.006930501
0.007858975
0.008866677
0.00995664
0.01113161
0.01239397
0.01374573
0.0151884
0.01672299
0.01834997
0.0200692
0.02188002
0.0237812
0.02577093
0.02784679
0.03000573
0.03224409
0.03455764
0.03694166
0.03939102
0.04190026
0.04446367
0.04707539
0.04972941
0.05241961
0.05513978
0.05788358
0.06064454
0.06341607
0.06619144
0.06896378
0.07172604
0.07447084
0.07719024
0.07987524
0.08251487
0.08509473
0.08759449
0.08998393
0.0922611
0.09446174
0.09662833
0.09881011
0.1010612
0.1034355
0.1059766
0.1087005
0.1115717
0.1144732
0.1171837
0.1193724
0.1206494
)
;
    }
    wall
    {
        type            nutLowReWallFunction;
        Cmu             0.09;
        kappa           0.41;
        E               9.8;
        value           nonuniform List<scalar> 2(7.802887e-13 7.802887e-13);
    }
    frontAndBack
    {
        type            empty;
    }
    middle
    {
        type            symmetryPlane;
        value           nonuniform List<scalar> 2(0.1206494 0.1206494);
    }
}


// ************************************************************************* //
