/*--------------------------------*- C++ -*----------------------------------*\
| =========                 |                                                 |
| \\      /  F ield         | foam-extend: Open Source CFD                    |
|  \\    /   O peration     | Version:     4.0                                |
|   \\  /    A nd           | Web:         http://www.foam-extend.org         |
|    \\/     M anipulation  |                                                 |
\*---------------------------------------------------------------------------*/
FoamFile
{
    version     2.0;
    format      ascii;
    class       volScalarField;
    location    "1000";
    object      p;
}
// * * * * * * * * * * * * * * * * * * * * * * * * * * * * * * * * * * * * * //

dimensions      [0 2 -2 0 0 0 0];

internalField   nonuniform List<scalar> 
150
(
7.479402e-10
-0.05
-7.676839e-05
-0.05007677
-0.0003882025
-0.0503882
-0.00122324
-0.05122324
-0.002906467
-0.05290646
-0.005758441
-0.05575844
-0.01006505
-0.06006504
-0.01606
-0.06605999
-0.02390898
-0.07390897
-0.03367148
-0.08367148
-0.04527956
-0.09527955
-0.05858681
-0.1085868
-0.07342571
-0.1234257
-0.08961613
-0.1396161
-0.106963
-0.156963
-0.1252661
-0.1752661
-0.1443302
-0.1943302
-0.1639737
-0.2139737
-0.1840326
-0.2340326
-0.2043641
-0.2543641
-0.224847
-0.274847
-0.2453812
-0.2953812
-0.2658864
-0.3158863
-0.2862994
-0.3362994
-0.3065724
-0.3565724
-0.3266695
-0.3766695
-0.3465645
-0.3965645
-0.3662385
-0.4162385
-0.3856774
-0.4356774
-0.4048699
-0.4548699
-0.4238058
-0.4738058
-0.4424747
-0.4924747
-0.4608643
-0.5108642
-0.4789598
-0.5289598
-0.4967435
-0.5467435
-0.5141937
-0.5641937
-0.5312828
-0.5812828
-0.5479748
-0.5979748
-0.5642234
-0.6142234
-0.5799708
-0.6299708
-0.5951456
-0.6451456
-0.6096629
-0.6596629
-0.6234232
-0.6734232
-0.6363147
-0.6863147
-0.6482157
-0.6982157
-0.6590003
-0.7090003
-0.6685462
-0.7185463
-0.6767425
-0.7267425
-0.6834963
-0.7334963
-0.6887366
-0.7387366
-0.6924139
-0.7424139
-0.694496
-0.744496
-0.6949639
-0.7449639
-0.6938067
-0.7438067
-0.6910176
-0.7410176
-0.6865909
-0.7365909
-0.6805184
-0.7305184
-0.6727859
-0.7227859
-0.6633679
-0.7133679
-0.6522174
-0.7022174
-0.6392386
-0.6892386
-0.624336
-0.674336
-0.6075971
-0.6575971
-0.5893307
-0.6393307
-0.5699129
-0.6199129
-0.5497304
-0.5997304
-0.5292135
-0.5792135
-0.5088071
-0.5588071
-0.4891101
-0.5391101
-0.4702784
-0.5202784
-0.4543496
-0.5043496
-0.4364437
-0.4864437
-0.4363444
-0.4863444
-0.3842472
-0.4342472
-0.5130625
-0.5630625
)
;

boundaryField
{
    leftandright
    {
        type            fan;
        patchType       cyclic;
        f               1(-0.1);
        value           nonuniform List<scalar> 
150
(
0.025
0.02492323
0.0246118
0.02377676
0.02209354
0.01924156
0.01493496
0.008940004
0.001091023
-0.008671478
-0.02027956
-0.03358681
-0.04842571
-0.06461613
-0.08196301
-0.1002661
-0.1193302
-0.1389737
-0.1590326
-0.1793641
-0.199847
-0.2203812
-0.2408863
-0.2612994
-0.2815724
-0.3016695
-0.3215645
-0.3412385
-0.3606774
-0.3798699
-0.3988058
-0.4174747
-0.4358642
-0.4539598
-0.4717435
-0.4891937
-0.5062828
-0.5229748
-0.5392234
-0.5549708
-0.5701456
-0.5846629
-0.5984232
-0.6113147
-0.6232157
-0.6340003
-0.6435463
-0.6517425
-0.6584963
-0.6637366
-0.6674139
-0.669496
-0.6699639
-0.6688067
-0.6660176
-0.6615909
-0.6555184
-0.6477859
-0.6383679
-0.6272174
-0.6142386
-0.599336
-0.5825971
-0.5643307
-0.5449129
-0.5247304
-0.5042135
-0.4838071
-0.4641101
-0.4452784
-0.4293496
-0.4114437
-0.4113444
-0.3592472
-0.4880625
-0.075
-0.07507677
-0.0753882
-0.07622324
-0.07790646
-0.08075844
-0.08506504
-0.09106
-0.09890898
-0.1086715
-0.1202796
-0.1335868
-0.1484257
-0.1646161
-0.181963
-0.2002661
-0.2193302
-0.2389737
-0.2590326
-0.2793641
-0.299847
-0.3203812
-0.3408863
-0.3612994
-0.3815724
-0.4016695
-0.4215645
-0.4412385
-0.4606774
-0.4798699
-0.4988058
-0.5174747
-0.5358642
-0.5539598
-0.5717435
-0.5891937
-0.6062828
-0.6229748
-0.6392234
-0.6549708
-0.6701456
-0.6846629
-0.6984232
-0.7113147
-0.7232157
-0.7340003
-0.7435463
-0.7517425
-0.7584963
-0.7637366
-0.7674139
-0.769496
-0.7699639
-0.7688067
-0.7660176
-0.7615909
-0.7555184
-0.7477859
-0.7383679
-0.7272174
-0.7142386
-0.699336
-0.6825971
-0.6643307
-0.6449129
-0.6247304
-0.6042135
-0.5838071
-0.5641101
-0.5452784
-0.5293496
-0.5114437
-0.5113444
-0.4592472
-0.5880625
)
;
    }
    wall
    {
        type            zeroGradient;
    }
    frontAndBack
    {
        type            empty;
    }
    middle
    {
        type            symmetryPlane;
        value           nonuniform List<scalar> 2(-0.5130625 -0.5630625);
    }
}


// ************************************************************************* //
