/*--------------------------------*- C++ -*----------------------------------*\
| =========                 |                                                 |
| \\      /  F ield         | foam-extend: Open Source CFD                    |
|  \\    /   O peration     | Version:     4.0                                |
|   \\  /    A nd           | Web:         http://www.foam-extend.org         |
|    \\/     M anipulation  |                                                 |
\*---------------------------------------------------------------------------*/
FoamFile
{
    version     2.0;
    format      ascii;
    class       surfaceScalarField;
    location    "1000";
    object      phi;
}
// * * * * * * * * * * * * * * * * * * * * * * * * * * * * * * * * * * * * * //

dimensions      [0 3 -1 0 0 0 0];

internalField   nonuniform List<scalar> 
223
(
3.182486e-05
1.686603e-13
7.285047e-15
0.0001019663
1.503304e-13
1.848865e-14
0.0001827185
1.216119e-13
2.576695e-14
0.0002752005
8.573328e-14
2.824817e-14
0.0003804863
4.811521e-14
2.704125e-14
0.0004995463
1.005062e-14
2.413098e-14
0.0006332275
-2.780133e-14
2.175657e-14
0.0007822833
-6.315713e-14
2.297847e-14
0.000947441
-9.179018e-14
3.186872e-14
0.001129045
-1.103241e-13
5.080184e-14
0.001326151
-1.182751e-13
7.873455e-14
0.001537604
-1.167499e-13
1.130407e-13
0.001763025
-1.069644e-13
1.510957e-13
0.002002164
-9.025028e-14
1.902257e-13
0.002254908
-6.823363e-14
2.275948e-13
0.002521297
-4.270497e-14
2.603789e-13
0.002801513
-1.536136e-14
2.8606e-13
0.00309588
1.225933e-14
3.025357e-13
0.003404859
3.886317e-14
3.082373e-13
0.003729038
6.343952e-14
3.0221e-13
0.004069126
8.524171e-14
2.841225e-13
0.004425947
1.037753e-13
2.542891e-13
0.004800432
1.187847e-13
2.136629e-13
0.005193612
1.302589e-13
1.63821e-13
0.005606618
1.38424e-13
1.069239e-13
0.006040674
1.437421e-13
4.563286e-14
0.006497096
1.468623e-13
-1.703366e-14
0.006977292
1.485249e-13
-7.789934e-14
0.00748276
1.494535e-13
-1.338784e-13
0.008015094
1.502029e-13
-1.822417e-13
0.008575982
1.510341e-13
-2.208793e-13
0.009167212
1.51812e-13
-2.485265e-13
0.009790675
1.519625e-13
-2.64908e-13
0.01044837
1.505119e-13
-2.707645e-13
0.01114241
1.45972e-13
-2.676701e-13
0.01187502
1.360759e-13
-2.574416e-13
0.01264856
1.176079e-13
-2.41233e-13
0.01346551
8.704076e-14
-2.193488e-13
0.0143285
4.279204e-14
-1.928024e-13
0.01524028
-1.366017e-14
-1.638934e-13
0.01620377
-8.037038e-14
-1.333393e-13
0.01722205
-1.556859e-13
-9.945291e-14
0.01829835
-2.355911e-13
-6.114604e-14
0.01943606
-3.127216e-13
-1.959261e-14
0.02063877
-3.767867e-13
2.111606e-14
0.02191022
-4.18823e-13
5.704531e-14
0.02325435
-4.378514e-13
8.996442e-14
0.02467529
-4.345428e-13
1.202508e-13
0.02617737
-4.067122e-13
1.41991e-13
0.02776514
-3.585899e-13
1.523359e-13
0.02944335
-3.004485e-13
1.515097e-13
0.03121699
-2.436092e-13
1.388437e-13
0.03309129
-1.998566e-13
1.143295e-13
0.03507168
-1.753162e-13
7.587535e-14
0.03716386
-1.673668e-13
1.996316e-14
0.03937374
-1.742607e-13
-4.632765e-14
0.04170745
-1.921778e-13
-1.091329e-13
0.04417135
-2.086553e-13
-1.586325e-13
0.04677199
-2.11457e-13
-1.865e-13
0.0495161
-1.922076e-13
-1.872803e-13
0.05241058
-1.475486e-13
-1.622349e-13
0.05546249
-8.174804e-14
-1.179577e-13
0.05867898
-6.127366e-15
-6.218579e-14
0.06206702
6.594487e-14
-4.731065e-15
0.06563328
1.243773e-13
4.453768e-14
0.06938394
1.626875e-13
7.864708e-14
0.07332457
1.753895e-13
9.12177e-14
0.07745992
1.526041e-13
7.130295e-14
0.08179386
9.044372e-14
1.286847e-14
0.08632927
-1.61359e-14
-8.705333e-14
0.09106795
-7.840636e-14
-1.37574e-13
0.0960106
-6.987451e-14
-1.099651e-13
0.1011566
-5.921064e-14
-8.294304e-14
0.1065035
-5.919853e-14
-5.258015e-14
0.1120457
)
;

boundaryField
{
    leftandright
    {
        type            cyclic;
        value           nonuniform List<scalar> 
150
(
-3.182486e-05
-0.0001019663
-0.0001827185
-0.0002752005
-0.0003804863
-0.0004995463
-0.0006332275
-0.0007822833
-0.000947441
-0.001129045
-0.001326151
-0.001537604
-0.001763025
-0.002002164
-0.002254908
-0.002521297
-0.002801513
-0.00309588
-0.003404859
-0.003729038
-0.004069126
-0.004425947
-0.004800432
-0.005193612
-0.005606618
-0.006040674
-0.006497096
-0.006977292
-0.00748276
-0.008015094
-0.008575982
-0.009167212
-0.009790675
-0.01044837
-0.01114241
-0.01187502
-0.01264856
-0.01346551
-0.0143285
-0.01524028
-0.01620377
-0.01722205
-0.01829835
-0.01943606
-0.02063877
-0.02191022
-0.02325435
-0.02467529
-0.02617737
-0.02776514
-0.02944335
-0.03121699
-0.03309129
-0.03507168
-0.03716386
-0.03937374
-0.04170745
-0.04417135
-0.04677199
-0.0495161
-0.05241058
-0.05546249
-0.05867898
-0.06206702
-0.06563328
-0.06938394
-0.07332457
-0.07745992
-0.08179386
-0.08632927
-0.09106795
-0.0960106
-0.1011566
-0.1065035
-0.1120457
3.182486e-05
0.0001019663
0.0001827185
0.0002752005
0.0003804863
0.0004995463
0.0006332275
0.0007822833
0.000947441
0.001129045
0.001326151
0.001537604
0.001763025
0.002002164
0.002254908
0.002521297
0.002801513
0.00309588
0.003404859
0.003729038
0.004069126
0.004425947
0.004800432
0.005193612
0.005606618
0.006040674
0.006497096
0.006977292
0.00748276
0.008015094
0.008575982
0.009167212
0.009790675
0.01044837
0.01114241
0.01187502
0.01264856
0.01346551
0.0143285
0.01524028
0.01620377
0.01722205
0.01829835
0.01943606
0.02063877
0.02191022
0.02325435
0.02467529
0.02617737
0.02776514
0.02944335
0.03121699
0.03309129
0.03507168
0.03716386
0.03937374
0.04170745
0.04417135
0.04677199
0.0495161
0.05241058
0.05546249
0.05867898
0.06206702
0.06563328
0.06938394
0.07332457
0.07745992
0.08179386
0.08632927
0.09106795
0.0960106
0.1011566
0.1065035
0.1120457
)
;
    }
    wall
    {
        type            calculated;
        value           uniform 0;
    }
    frontAndBack
    {
        type            empty;
    }
    middle
    {
        type            symmetryPlane;
        value           uniform 0;
    }
}


// ************************************************************************* //
