/*--------------------------------*- C++ -*----------------------------------*\
| =========                 |                                                 |
| \\      /  F ield         | foam-extend: Open Source CFD                    |
|  \\    /   O peration     | Version:     4.0                                |
|   \\  /    A nd           | Web:         http://www.foam-extend.org         |
|    \\/     M anipulation  |                                                 |
\*---------------------------------------------------------------------------*/
FoamFile
{
    version     2.0;
    format      ascii;
    class       volScalarField;
    location    "1000";
    object      QR;
}
// * * * * * * * * * * * * * * * * * * * * * * * * * * * * * * * * * * * * * //

dimensions      [0 0 -1 0 0 0 0];

internalField   nonuniform List<scalar> 
150
(
410.1395
410.1395
409.4198
409.4198
408.2165
408.2165
406.0202
406.0202
402.2514
402.2514
396.4361
396.4361
388.3719
388.3719
378.1915
378.1915
365.7144
365.7145
349.3789
349.379
328.5242
328.5242
305.222
305.222
281.401
281.401
257.8151
257.8151
235.0203
235.0203
213.3977
213.3977
193.1858
193.1858
174.5119
174.5119
157.4191
157.4191
141.8897
141.8897
127.8638
127.8638
115.2541
115.2541
103.9572
103.9572
93.8623
93.8623
84.85741
84.85741
76.83333
76.83333
69.68662
69.68662
63.32117
63.32117
57.64907
57.64907
52.59081
52.59081
48.07509
48.07509
44.0384
44.0384
40.42442
40.42442
37.18339
37.18339
34.27137
34.27137
31.64966
31.64966
29.28424
29.28424
27.14524
27.14524
25.20645
25.20645
23.44481
23.44481
21.84001
21.84001
20.37411
20.37411
19.03127
19.03127
17.79745
17.79745
16.66032
16.66032
15.60904
15.60903
14.63417
14.63417
13.7276
13.7276
12.88232
12.88232
12.09229
12.09229
11.35224
11.35224
10.65751
10.65751
10.00386
10.00386
9.387424
9.387423
8.80463
8.80463
8.252171
8.252171
7.727
7.727
7.226339
7.226339
6.747694
6.747694
6.288889
6.288889
5.848119
5.848119
5.423411
5.423411
5.011601
5.011601
4.608524
4.608524
4.210206
4.210206
3.81342
3.81342
3.415784
3.415784
3.015903
3.015903
2.613506
2.613506
2.209454
2.209454
1.805472
1.805472
1.403501
1.403501
1.005509
1.005509
0.6127059
0.6127061
0.2093592
0.2093595
)
;

boundaryField
{
    leftandright
    {
        type            cyclic;
        value           nonuniform List<scalar> 
150
(
410.1395
409.4198
408.2165
406.0202
402.2514
396.4361
388.3719
378.1915
365.7145
349.379
328.5242
305.222
281.401
257.8151
235.0203
213.3977
193.1858
174.5119
157.4191
141.8897
127.8638
115.2541
103.9572
93.8623
84.85741
76.83333
69.68662
63.32117
57.64907
52.59081
48.07509
44.0384
40.42442
37.18339
34.27137
31.64966
29.28424
27.14524
25.20645
23.44481
21.84001
20.37411
19.03127
17.79745
16.66032
15.60904
14.63417
13.7276
12.88232
12.09229
11.35224
10.65751
10.00386
9.387424
8.80463
8.252171
7.727
7.226339
6.747694
6.288889
5.848119
5.423411
5.011601
4.608524
4.210206
3.81342
3.415784
3.015903
2.613506
2.209454
1.805472
1.403501
1.005509
0.612706
0.2093593
410.1395
409.4198
408.2165
406.0202
402.2514
396.4361
388.3719
378.1915
365.7145
349.379
328.5242
305.222
281.401
257.8151
235.0203
213.3977
193.1858
174.5119
157.4191
141.8897
127.8638
115.2541
103.9572
93.8623
84.85741
76.83333
69.68662
63.32117
57.64907
52.59081
48.07509
44.0384
40.42442
37.18339
34.27137
31.64966
29.28424
27.14524
25.20645
23.44481
21.84001
20.37411
19.03127
17.79745
16.66032
15.60904
14.63417
13.7276
12.88232
12.09229
11.35224
10.65751
10.00386
9.387424
8.80463
8.252171
7.727
7.226339
6.747694
6.288889
5.848119
5.423411
5.011601
4.608524
4.210206
3.81342
3.415784
3.015903
2.613506
2.209454
1.805472
1.403501
1.005509
0.612706
0.2093593
)
;
    }
    wall
    {
        type            calculated;
        value           nonuniform List<scalar> 2(410.4329 410.4329);
    }
    frontAndBack
    {
        type            empty;
    }
    middle
    {
        type            symmetryPlane;
        value           nonuniform List<scalar> 2(0.4361242 0.4361242);
    }
}


// ************************************************************************* //
