/*--------------------------------*- C++ -*----------------------------------*\
| =========                 |                                                 |
| \\      /  F ield         | foam-extend: Open Source CFD                    |
|  \\    /   O peration     | Version:     4.0                                |
|   \\  /    A nd           | Web:         http://www.foam-extend.org         |
|    \\/     M anipulation  |                                                 |
\*---------------------------------------------------------------------------*/
FoamFile
{
    version     2.0;
    format      ascii;
    class       volSymmTensorField;
    location    "1000";
    object      RStress;
}
// * * * * * * * * * * * * * * * * * * * * * * * * * * * * * * * * * * * * * //

dimensions      [0 2 -2 0 0 0 0];

internalField   nonuniform List<symmTensor> 
150
(
(0.01144814 -4.206801e-06 0 1.265815e-06 0 0.000878497)
(0.01144814 -4.206801e-06 0 1.265815e-06 0 0.0008784971)
(0.1219791 -0.0002174901 0 6.136192e-05 0 0.009366366)
(0.1219791 -0.0002174901 0 6.136192e-05 0 0.009366366)
(0.3219467 -0.001381022 0 0.0003684448 0 0.02474953)
(0.3219467 -0.001381022 0 0.0003684449 0 0.02474953)
(0.6127436 -0.004721286 0 0.001206322 0 0.04718232)
(0.6127436 -0.004721286 0 0.001206322 0 0.04718232)
(0.9948237 -0.01165895 0 0.00290283 0 0.07677228)
(0.9948237 -0.01165895 0 0.00290283 0 0.07677228)
(1.466209 -0.02335043 0 0.005785606 0 0.1134653)
(1.466209 -0.02335043 0 0.005785606 0 0.1134653)
(2.021195 -0.0402388 0 0.01014755 0 0.1569347)
(2.021195 -0.04023881 0 0.01014755 0 0.1569347)
(2.649963 -0.06189937 0 0.01622669 0 0.2065364)
(2.649963 -0.06189937 0 0.01622669 0 0.2065365)
(3.339361 -0.08715 0 0.02420154 0 0.2613921)
(3.339361 -0.08715 0 0.02420154 0 0.2613921)
(4.072324 -0.1198409 0 0.03416809 0 0.3203995)
(4.072324 -0.1198409 0 0.03416809 0 0.3203995)
(4.80864 -0.1679367 0 0.04606266 0 0.3938653)
(4.80864 -0.1679367 0 0.04606266 0 0.3938653)
(5.510854 -0.218717 0 0.05973101 0 0.479357)
(5.510854 -0.218717 0 0.05973102 0 0.479357)
(6.15881 -0.2702403 0 0.07502848 0 0.5670485)
(6.15881 -0.2702403 0 0.07502848 0 0.5670485)
(6.732148 -0.3207794 0 0.09178192 0 0.6546939)
(6.732149 -0.3207795 0 0.09178192 0 0.654694)
(7.218261 -0.369106 0 0.1098045 0 0.7403585)
(7.218261 -0.3691061 0 0.1098045 0 0.7403586)
(7.611668 -0.4144068 0 0.1289047 0 0.8224894)
(7.611668 -0.4144068 0 0.1289047 0 0.8224894)
(7.912752 -0.4562014 0 0.1488956 0 0.8999318)
(7.912753 -0.4562014 0 0.1488956 0 0.8999318)
(8.126248 -0.4942697 0 0.1696012 0 0.9719065)
(8.126249 -0.4942697 0 0.1696012 0 0.9719065)
(8.25978 -0.528587 0 0.1908603 0 1.037963)
(8.25978 -0.528587 0 0.1908603 0 1.037963)
(8.322602 -0.5592689 0 0.2125283 0 1.097921)
(8.322602 -0.559269 0 0.2125283 0 1.097921)
(8.324609 -0.5865252 0 0.2344776 0 1.151813)
(8.324609 -0.5865252 0 0.2344776 0 1.151813)
(8.275618 -0.6106218 0 0.2565963 0 1.199825)
(8.275618 -0.6106218 0 0.2565963 0 1.199825)
(8.18489 -0.6318517 0 0.2787869 0 1.24225)
(8.18489 -0.6318517 0 0.2787869 0 1.24225)
(8.060845 -0.6505128 0 0.3009642 0 1.279447)
(8.060845 -0.6505128 0 0.3009642 0 1.279447)
(7.910925 -0.6668922 0 0.3230532 0 1.311813)
(7.910925 -0.6668922 0 0.3230532 0 1.311813)
(7.741557 -0.6812564 0 0.3449874 0 1.339753)
(7.741557 -0.6812564 0 0.3449874 0 1.339753)
(7.558184 -0.6938445 0 0.3667067 0 1.363669)
(7.558184 -0.6938446 0 0.3667067 0 1.363669)
(7.365336 -0.7048663 0 0.3881561 0 1.383945)
(7.365337 -0.7048663 0 0.3881561 0 1.383945)
(7.166725 -0.714501 0 0.4092844 0 1.400938)
(7.166726 -0.714501 0 0.4092844 0 1.400938)
(6.965341 -0.722899 0 0.430043 0 1.414979)
(6.965341 -0.722899 0 0.430043 0 1.414979)
(6.763551 -0.7301836 0 0.4503852 0 1.426363)
(6.763551 -0.7301836 0 0.4503852 0 1.426363)
(6.563191 -0.7364538 0 0.470266 0 1.435356)
(6.563191 -0.7364538 0 0.470266 0 1.435356)
(6.365649 -0.7417868 0 0.4896413 0 1.442188)
(6.365649 -0.7417868 0 0.4896413 0 1.442188)
(6.171935 -0.746241 0 0.5084685 0 1.447063)
(6.171935 -0.746241 0 0.5084685 0 1.447063)
(5.982744 -0.7498583 0 0.5267063 0 1.45015)
(5.982744 -0.7498583 0 0.5267063 0 1.45015)
(5.798509 -0.7526668 0 0.5443155 0 1.451597)
(5.798509 -0.7526668 0 0.5443155 0 1.451597)
(5.619448 -0.7546821 0 0.5612571 0 1.451521)
(5.619448 -0.7546821 0 0.5612571 0 1.451521)
(5.445609 -0.755908 0 0.577491 0 1.450013)
(5.445609 -0.7559079 0 0.577491 0 1.450013)
(5.276899 -0.756338 0 0.5929749 0 1.447139)
(5.276899 -0.756338 0 0.5929749 0 1.447139)
(5.113114 -0.7559565 0 0.6076634 0 1.442938)
(5.113114 -0.7559565 0 0.6076634 0 1.442938)
(4.953959 -0.7547391 0 0.6215083 0 1.437429)
(4.953959 -0.7547391 0 0.6215084 0 1.437429)
(4.799075 -0.7526535 0 0.634458 0 1.430609)
(4.799075 -0.7526535 0 0.634458 0 1.430609)
(4.648055 -0.749661 0 0.6464578 0 1.422459)
(4.648055 -0.7496609 0 0.6464578 0 1.422459)
(4.500462 -0.7457179 0 0.6574507 0 1.412945)
(4.500462 -0.7457179 0 0.6574507 0 1.412945)
(4.355849 -0.7407791 0 0.6673779 0 1.402022)
(4.355849 -0.7407791 0 0.6673779 0 1.402022)
(4.213782 -0.7348015 0 0.6761803 0 1.389639)
(4.213782 -0.7348015 0 0.6761803 0 1.389639)
(4.073851 -0.7277488 0 0.683799 0 1.375744)
(4.073851 -0.7277488 0 0.683799 0 1.375744)
(3.935689 -0.7195955 0 0.6901772 0 1.360288)
(3.935689 -0.7195955 0 0.6901772 0 1.360288)
(3.798984 -0.7103282 0 0.695261 0 1.343228)
(3.798984 -0.7103282 0 0.695261 0 1.343228)
(3.663485 -0.6999449 0 0.6990006 0 1.32453)
(3.663485 -0.6999449 0 0.6990006 0 1.32453)
(3.529002 -0.6884516 0 0.7013513 0 1.304173)
(3.529002 -0.6884516 0 0.7013513 0 1.304173)
(3.395407 -0.6758573 0 0.7022736 0 1.282147)
(3.395407 -0.6758573 0 0.7022736 0 1.282147)
(3.262624 -0.6621698 0 0.7017336 0 1.258454)
(3.262624 -0.6621698 0 0.7017336 0 1.258454)
(3.130632 -0.6473922 0 0.6997022 0 1.233107)
(3.130632 -0.6473922 0 0.6997022 0 1.233107)
(2.999457 -0.6315212 0 0.6961541 0 1.20613)
(2.999457 -0.6315212 0 0.6961541 0 1.20613)
(2.869174 -0.6145461 0 0.6910665 0 1.177555)
(2.869174 -0.6145461 0 0.6910665 0 1.177555)
(2.739909 -0.596449 0 0.6844161 0 1.147424)
(2.739909 -0.596449 0 0.6844161 0 1.147424)
(2.611849 -0.5772056 0 0.676176 0 1.115785)
(2.611849 -0.5772056 0 0.676176 0 1.115785)
(2.485248 -0.5567851 0 0.6663103 0 1.082691)
(2.485248 -0.5567851 0 0.6663103 0 1.082691)
(2.360444 -0.5351513 0 0.6547577 0 1.048197)
(2.360444 -0.5351513 0 0.6547577 0 1.048197)
(2.23788 -0.512263 0 0.6414304 0 1.012351)
(2.23788 -0.512263 0 0.6414304 0 1.012351)
(2.118129 -0.4880199 0 0.6262092 0 0.9751893)
(2.118129 -0.4880199 0 0.6262092 0 0.9751893)
(2.001493 -0.4623758 0 0.6091807 0 0.9368951)
(2.001493 -0.4623759 0 0.6091807 0 0.9368951)
(1.888043 -0.4353292 0 0.5906631 0 0.8978197)
(1.888043 -0.4353292 0 0.5906631 0 0.8978197)
(1.778043 -0.4068251 0 0.5710142 0 0.8583596)
(1.778043 -0.4068252 0 0.5710142 0 0.8583596)
(1.671958 -0.3768044 0 0.5506281 0 0.8189717)
(1.671958 -0.3768045 0 0.5506281 0 0.8189717)
(1.570477 -0.3452032 0 0.5299179 0 0.7801848)
(1.570477 -0.3452032 0 0.5299179 0 0.7801848)
(1.474509 -0.3119514 0 0.5093865 0 0.7426058)
(1.474509 -0.3119514 0 0.5093865 0 0.7426058)
(1.38518 -0.2769705 0 0.4893969 0 0.7069174)
(1.38518 -0.2769705 0 0.4893969 0 0.7069174)
(1.303799 -0.2401688 0 0.4710006 0 0.6738662)
(1.303799 -0.2401688 0 0.4710006 0 0.6738662)
(1.231813 -0.2014388 0 0.4529744 0 0.6442413)
(1.231813 -0.2014388 0 0.4529744 0 0.6442413)
(1.170759 -0.1606513 0 0.4418983 0 0.6188522)
(1.170759 -0.1606513 0 0.4418983 0 0.6188522)
(1.122208 -0.1176648 0 0.4184886 0 0.598503)
(1.122208 -0.1176648 0 0.4184886 0 0.598503)
(1.08788 -0.07233433 0 0.4341526 0 0.5840315)
(1.08788 -0.07233436 0 0.4341526 0 0.5840315)
(1.069511 -0.02453715 0 0.4058172 0 0.5762653)
(1.069511 -0.02453718 0 0.4058172 0 0.5762653)
)
;

boundaryField
{
    leftandright
    {
        type            cyclic;
        value           nonuniform List<symmTensor> 
150
(
(0.01144814 -4.206801e-06 0 1.265815e-06 0 0.0008784971)
(0.1219791 -0.0002174901 0 6.136192e-05 0 0.009366366)
(0.3219467 -0.001381022 0 0.0003684448 0 0.02474953)
(0.6127436 -0.004721286 0 0.001206322 0 0.04718232)
(0.9948237 -0.01165895 0 0.00290283 0 0.07677228)
(1.466209 -0.02335043 0 0.005785606 0 0.1134653)
(2.021195 -0.04023881 0 0.01014755 0 0.1569347)
(2.649963 -0.06189937 0 0.01622669 0 0.2065365)
(3.339361 -0.08715 0 0.02420154 0 0.2613921)
(4.072324 -0.1198409 0 0.03416809 0 0.3203995)
(4.80864 -0.1679367 0 0.04606266 0 0.3938653)
(5.510854 -0.218717 0 0.05973102 0 0.479357)
(6.15881 -0.2702403 0 0.07502848 0 0.5670485)
(6.732148 -0.3207794 0 0.09178192 0 0.6546939)
(7.218261 -0.369106 0 0.1098045 0 0.7403585)
(7.611668 -0.4144068 0 0.1289047 0 0.8224894)
(7.912752 -0.4562014 0 0.1488956 0 0.8999318)
(8.126248 -0.4942697 0 0.1696012 0 0.9719065)
(8.25978 -0.528587 0 0.1908603 0 1.037963)
(8.322602 -0.559269 0 0.2125283 0 1.097921)
(8.324609 -0.5865252 0 0.2344776 0 1.151813)
(8.275618 -0.6106218 0 0.2565963 0 1.199825)
(8.18489 -0.6318517 0 0.2787869 0 1.24225)
(8.060845 -0.6505128 0 0.3009642 0 1.279447)
(7.910925 -0.6668922 0 0.3230532 0 1.311813)
(7.741557 -0.6812564 0 0.3449874 0 1.339753)
(7.558184 -0.6938445 0 0.3667067 0 1.363669)
(7.365337 -0.7048663 0 0.3881561 0 1.383945)
(7.166725 -0.714501 0 0.4092844 0 1.400938)
(6.965341 -0.722899 0 0.430043 0 1.414979)
(6.763551 -0.7301836 0 0.4503852 0 1.426363)
(6.563191 -0.7364538 0 0.470266 0 1.435356)
(6.365649 -0.7417868 0 0.4896413 0 1.442188)
(6.171935 -0.746241 0 0.5084685 0 1.447063)
(5.982744 -0.7498583 0 0.5267063 0 1.45015)
(5.798509 -0.7526668 0 0.5443155 0 1.451597)
(5.619448 -0.7546821 0 0.5612571 0 1.451521)
(5.445609 -0.755908 0 0.577491 0 1.450013)
(5.276899 -0.756338 0 0.5929749 0 1.447139)
(5.113114 -0.7559565 0 0.6076634 0 1.442938)
(4.953959 -0.7547391 0 0.6215083 0 1.437429)
(4.799075 -0.7526535 0 0.634458 0 1.430609)
(4.648055 -0.749661 0 0.6464578 0 1.422459)
(4.500462 -0.7457179 0 0.6574507 0 1.412945)
(4.355849 -0.7407791 0 0.6673779 0 1.402022)
(4.213782 -0.7348015 0 0.6761803 0 1.389639)
(4.073851 -0.7277488 0 0.683799 0 1.375744)
(3.935689 -0.7195955 0 0.6901772 0 1.360288)
(3.798984 -0.7103282 0 0.695261 0 1.343228)
(3.663485 -0.6999449 0 0.6990006 0 1.32453)
(3.529002 -0.6884516 0 0.7013513 0 1.304173)
(3.395407 -0.6758573 0 0.7022736 0 1.282147)
(3.262624 -0.6621698 0 0.7017336 0 1.258454)
(3.130632 -0.6473922 0 0.6997022 0 1.233107)
(2.999457 -0.6315212 0 0.6961541 0 1.20613)
(2.869174 -0.6145461 0 0.6910665 0 1.177555)
(2.739909 -0.596449 0 0.6844161 0 1.147424)
(2.611849 -0.5772056 0 0.676176 0 1.115785)
(2.485248 -0.5567851 0 0.6663103 0 1.082691)
(2.360444 -0.5351513 0 0.6547577 0 1.048197)
(2.23788 -0.512263 0 0.6414304 0 1.012351)
(2.118129 -0.4880199 0 0.6262092 0 0.9751893)
(2.001493 -0.4623759 0 0.6091807 0 0.9368951)
(1.888043 -0.4353292 0 0.5906631 0 0.8978197)
(1.778043 -0.4068252 0 0.5710142 0 0.8583596)
(1.671958 -0.3768044 0 0.5506281 0 0.8189717)
(1.570477 -0.3452032 0 0.5299179 0 0.7801848)
(1.474509 -0.3119514 0 0.5093865 0 0.7426058)
(1.38518 -0.2769705 0 0.4893969 0 0.7069174)
(1.303799 -0.2401688 0 0.4710006 0 0.6738662)
(1.231813 -0.2014388 0 0.4529744 0 0.6442413)
(1.170759 -0.1606513 0 0.4418983 0 0.6188522)
(1.122208 -0.1176648 0 0.4184886 0 0.598503)
(1.08788 -0.07233435 0 0.4341526 0 0.5840315)
(1.069511 -0.02453717 0 0.4058172 0 0.5762653)
(0.01144814 -4.206801e-06 0 1.265815e-06 0 0.0008784971)
(0.1219791 -0.0002174901 0 6.136192e-05 0 0.009366366)
(0.3219467 -0.001381022 0 0.0003684448 0 0.02474953)
(0.6127436 -0.004721286 0 0.001206322 0 0.04718232)
(0.9948237 -0.01165895 0 0.00290283 0 0.07677228)
(1.466209 -0.02335043 0 0.005785606 0 0.1134653)
(2.021195 -0.04023881 0 0.01014755 0 0.1569347)
(2.649963 -0.06189937 0 0.01622669 0 0.2065365)
(3.339361 -0.08715 0 0.02420154 0 0.2613921)
(4.072324 -0.1198409 0 0.03416809 0 0.3203995)
(4.80864 -0.1679367 0 0.04606266 0 0.3938653)
(5.510854 -0.218717 0 0.05973102 0 0.479357)
(6.15881 -0.2702403 0 0.07502848 0 0.5670485)
(6.732148 -0.3207794 0 0.09178192 0 0.6546939)
(7.218261 -0.369106 0 0.1098045 0 0.7403585)
(7.611668 -0.4144068 0 0.1289047 0 0.8224894)
(7.912752 -0.4562014 0 0.1488956 0 0.8999318)
(8.126248 -0.4942697 0 0.1696012 0 0.9719065)
(8.25978 -0.528587 0 0.1908603 0 1.037963)
(8.322602 -0.559269 0 0.2125283 0 1.097921)
(8.324609 -0.5865252 0 0.2344776 0 1.151813)
(8.275618 -0.6106218 0 0.2565963 0 1.199825)
(8.18489 -0.6318517 0 0.2787869 0 1.24225)
(8.060845 -0.6505128 0 0.3009642 0 1.279447)
(7.910925 -0.6668922 0 0.3230532 0 1.311813)
(7.741557 -0.6812564 0 0.3449874 0 1.339753)
(7.558184 -0.6938445 0 0.3667067 0 1.363669)
(7.365337 -0.7048663 0 0.3881561 0 1.383945)
(7.166725 -0.714501 0 0.4092844 0 1.400938)
(6.965341 -0.722899 0 0.430043 0 1.414979)
(6.763551 -0.7301836 0 0.4503852 0 1.426363)
(6.563191 -0.7364538 0 0.470266 0 1.435356)
(6.365649 -0.7417868 0 0.4896413 0 1.442188)
(6.171935 -0.746241 0 0.5084685 0 1.447063)
(5.982744 -0.7498583 0 0.5267063 0 1.45015)
(5.798509 -0.7526668 0 0.5443155 0 1.451597)
(5.619448 -0.7546821 0 0.5612571 0 1.451521)
(5.445609 -0.755908 0 0.577491 0 1.450013)
(5.276899 -0.756338 0 0.5929749 0 1.447139)
(5.113114 -0.7559565 0 0.6076634 0 1.442938)
(4.953959 -0.7547391 0 0.6215083 0 1.437429)
(4.799075 -0.7526535 0 0.634458 0 1.430609)
(4.648055 -0.749661 0 0.6464578 0 1.422459)
(4.500462 -0.7457179 0 0.6574507 0 1.412945)
(4.355849 -0.7407791 0 0.6673779 0 1.402022)
(4.213782 -0.7348015 0 0.6761803 0 1.389639)
(4.073851 -0.7277488 0 0.683799 0 1.375744)
(3.935689 -0.7195955 0 0.6901772 0 1.360288)
(3.798984 -0.7103282 0 0.695261 0 1.343228)
(3.663485 -0.6999449 0 0.6990006 0 1.32453)
(3.529002 -0.6884516 0 0.7013513 0 1.304173)
(3.395407 -0.6758573 0 0.7022736 0 1.282147)
(3.262624 -0.6621698 0 0.7017336 0 1.258454)
(3.130632 -0.6473922 0 0.6997022 0 1.233107)
(2.999457 -0.6315212 0 0.6961541 0 1.20613)
(2.869174 -0.6145461 0 0.6910665 0 1.177555)
(2.739909 -0.596449 0 0.6844161 0 1.147424)
(2.611849 -0.5772056 0 0.676176 0 1.115785)
(2.485248 -0.5567851 0 0.6663103 0 1.082691)
(2.360444 -0.5351513 0 0.6547577 0 1.048197)
(2.23788 -0.512263 0 0.6414304 0 1.012351)
(2.118129 -0.4880199 0 0.6262092 0 0.9751893)
(2.001493 -0.4623759 0 0.6091807 0 0.9368951)
(1.888043 -0.4353292 0 0.5906631 0 0.8978197)
(1.778043 -0.4068252 0 0.5710142 0 0.8583596)
(1.671958 -0.3768044 0 0.5506281 0 0.8189717)
(1.570477 -0.3452032 0 0.5299179 0 0.7801848)
(1.474509 -0.3119514 0 0.5093865 0 0.7426058)
(1.38518 -0.2769705 0 0.4893969 0 0.7069174)
(1.303799 -0.2401688 0 0.4710006 0 0.6738662)
(1.231813 -0.2014388 0 0.4529744 0 0.6442413)
(1.170759 -0.1606513 0 0.4418983 0 0.6188522)
(1.122208 -0.1176648 0 0.4184886 0 0.598503)
(1.08788 -0.07233435 0 0.4341526 0 0.5840315)
(1.069511 -0.02453717 0 0.4058172 0 0.5762653)
)
;
    }
    wall
    {
        type            calculated;
        value           nonuniform List<symmTensor> 2((3.333333e-11 -3.202561e-10 0 9.998798e-11 0 6.666667e-11) (3.333333e-11 -3.202561e-10 0 9.998798e-11 0 6.666667e-11));
    }
    frontAndBack
    {
        type            empty;
    }
    middle
    {
        type            symmetryPlane;
        value           nonuniform List<symmTensor> 2((1.069511 0 0 0.501852 0 0.5762653) (1.069511 0 0 0.501852 0 0.5762653));
    }
}


// ************************************************************************* //
