/*--------------------------------*- C++ -*----------------------------------*\
| =========                 |                                                 |
| \\      /  F ield         | foam-extend: Open Source CFD                    |
|  \\    /   O peration     | Version:     4.0                                |
|   \\  /    A nd           | Web:         http://www.foam-extend.org         |
|    \\/     M anipulation  |                                                 |
\*---------------------------------------------------------------------------*/
FoamFile
{
    version     2.0;
    format      ascii;
    class       volSymmTensorField;
    location    "1000";
    object      tauP;
}
// * * * * * * * * * * * * * * * * * * * * * * * * * * * * * * * * * * * * * //

dimensions      [0 2 -2 0 0 0 0];

internalField   nonuniform List<symmTensor> 
150
(
(2.129671 0.06543191 0 1.078141e-05 0 5.043851e-06)
(2.129672 0.06543191 0 1.07814e-05 0 5.043861e-06)
(2.126701 0.06539762 0 1.214508e-05 0 4.988222e-06)
(2.126701 0.06539762 0 1.214508e-05 0 4.988228e-06)
(2.12079 0.06534341 0 1.640658e-05 0 5.186878e-06)
(2.12079 0.06534341 0 1.640658e-05 0 5.186881e-06)
(2.111066 0.06526571 0 2.588629e-05 0 5.46138e-06)
(2.111066 0.06526571 0 2.588629e-05 0 5.461381e-06)
(2.096315 0.06516107 0 4.439535e-05 0 5.485982e-06)
(2.096316 0.06516107 0 4.439536e-05 0 5.485982e-06)
(2.075724 0.06504759 0 7.780957e-05 0 5.126397e-06)
(2.075724 0.06504759 0 7.780958e-05 0 5.126398e-06)
(2.049376 0.06497626 0 0.0001338858 0 4.661702e-06)
(2.049376 0.06497626 0 0.0001338858 0 4.661702e-06)
(2.017951 0.06502315 0 0.0002219305 0 4.696249e-06)
(2.017951 0.06502315 0 0.0002219306 0 4.69625e-06)
(1.980762 0.06523786 0 0.0003531247 0 5.205211e-06)
(1.980762 0.06523786 0 0.0003531247 0 5.205213e-06)
(1.93459 0.06559122 0 0.0005447972 0 4.760008e-06)
(1.93459 0.06559122 0 0.0005447972 0 4.760011e-06)
(1.878706 0.0660793 0 0.0008202907 0 2.885435e-06)
(1.878706 0.0660793 0 0.0008202907 0 2.88544e-06)
(1.816233 0.06675867 0 0.001182659 0 3.60134e-07)
(1.816233 0.06675867 0 0.001182659 0 3.601413e-07)
(1.752721 0.06771829 0 0.001640537 0 -1.251622e-06)
(1.752721 0.06771829 0 0.001640537 0 -1.251612e-06)
(1.690651 0.06895548 0 0.00220265 0 -1.973512e-06)
(1.690651 0.06895548 0 0.00220265 0 -1.9735e-06)
(1.630972 0.07043113 0 0.002877979 0 -2.136697e-06)
(1.630972 0.07043113 0 0.002877979 0 -2.136681e-06)
(1.573902 0.07209069 0 0.003675367 0 -2.009431e-06)
(1.573902 0.0720907 0 0.003675367 0 -2.009413e-06)
(1.519295 0.07387008 0 0.004602612 0 -1.755269e-06)
(1.519295 0.07387008 0 0.004602612 0 -1.755248e-06)
(1.466814 0.07569758 0 0.005665374 0 -1.465653e-06)
(1.466814 0.07569758 0 0.005665375 0 -1.46563e-06)
(1.416033 0.07749601 0 0.006866108 0 -1.189998e-06)
(1.416033 0.07749601 0 0.006866109 0 -1.189973e-06)
(1.366506 0.07918589 0 0.00820313 0 -9.528422e-07)
(1.366506 0.0791859 0 0.008203131 0 -9.528163e-07)
(1.317821 0.08068931 0 0.009669918 0 -7.631043e-07)
(1.317821 0.08068932 0 0.009669918 0 -7.63078e-07)
(1.269625 0.08193387 0 0.0112547 0 -6.199306e-07)
(1.269625 0.08193387 0 0.0112547 0 -6.199046e-07)
(1.221647 0.08285615 0 0.01294037 0 -5.170203e-07)
(1.221647 0.08285615 0 0.01294037 0 -5.169953e-07)
(1.173694 0.08340435 0 0.01470469 0 -4.458664e-07)
(1.173694 0.08340435 0 0.01470469 0 -4.458429e-07)
(1.125644 0.08353979 0 0.01652082 0 -3.979537e-07)
(1.125644 0.08353979 0 0.01652082 0 -3.979321e-07)
(1.077434 0.08323746 0 0.01835797 0 -3.659968e-07)
(1.077434 0.08323746 0 0.01835797 0 -3.659773e-07)
(1.029045 0.08248559 0 0.02018226 0 -3.444204e-07)
(1.029045 0.08248559 0 0.02018226 0 -3.444028e-07)
(0.9804919 0.0812846 0 0.02195769 0 -3.293389e-07)
(0.9804918 0.0812846 0 0.02195769 0 -3.293229e-07)
(0.9318077 0.07964562 0 0.02364709 0 -3.182755e-07)
(0.9318077 0.07964562 0 0.02364709 0 -3.182606e-07)
(0.8830419 0.07758881 0 0.02521315 0 -3.097944e-07)
(0.8830418 0.07758881 0 0.02521315 0 -3.097803e-07)
(0.8342529 0.07514165 0 0.02661943 0 -3.031541e-07)
(0.8342529 0.07514164 0 0.02661943 0 -3.031402e-07)
(0.7855072 0.07233731 0 0.02783133 0 -2.980298e-07)
(0.7855071 0.07233731 0 0.02783133 0 -2.980154e-07)
(0.7368789 0.06921328 0 0.02881707 0 -2.943256e-07)
(0.7368788 0.06921327 0 0.02881707 0 -2.943103e-07)
(0.6884514 0.06581008 0 0.02954864 0 -2.921006e-07)
(0.6884513 0.06581007 0 0.02954864 0 -2.920842e-07)
(0.6403203 0.06217046 0 0.03000272 0 -2.914896e-07)
(0.6403202 0.06217045 0 0.03000272 0 -2.914728e-07)
(0.5925988 0.05833876 0 0.03016169 0 -2.923104e-07)
(0.5925987 0.05833876 0 0.03016168 0 -2.922926e-07)
(0.5454195 0.05436034 0 0.03001424 0 -2.94491e-07)
(0.5454194 0.05436033 0 0.03001424 0 -2.9447e-07)
(0.4989401 0.05028129 0 0.02955621 0 -2.979626e-07)
(0.49894 0.05028128 0 0.0295562 0 -2.979349e-07)
(0.4533487 0.04614858 0 0.0287914 0 -3.025263e-07)
(0.4533486 0.04614857 0 0.02879139 0 -3.024899e-07)
(0.4088703 0.04201029 0 0.02773263 0 -3.077953e-07)
(0.4088701 0.04201028 0 0.02773263 0 -3.077605e-07)
(0.3657712 0.03791586 0 0.02640269 0 -3.131068e-07)
(0.365771 0.03791585 0 0.02640269 0 -3.130725e-07)
(0.3243612 0.0339162 0 0.02483514 0 -3.173962e-07)
(0.3243611 0.03391619 0 0.02483513 0 -3.173609e-07)
(0.2849896 0.03006326 0 0.02307461 0 -3.191253e-07)
(0.2849895 0.03006325 0 0.0230746 0 -3.190905e-07)
(0.2480308 0.02640865 0 0.02117608 0 -3.163591e-07)
(0.2480306 0.02640864 0 0.02117607 0 -3.163259e-07)
(0.2138562 0.02300102 0 0.01920247 0 -3.070924e-07)
(0.213856 0.023001 0 0.01920246 0 -3.070617e-07)
(0.1827929 0.01988211 0 0.01722024 0 -2.898627e-07)
(0.1827928 0.0198821 0 0.01722023 0 -2.898369e-07)
(0.1550737 0.0170821 0 0.01529309 0 -2.644682e-07)
(0.1550736 0.01708209 0 0.01529308 0 -2.644452e-07)
(0.1307936 0.01461562 0 0.01347507 0 -2.323958e-07)
(0.1307935 0.01461561 0 0.01347506 0 -2.323731e-07)
(0.1098891 0.01248001 0 0.01180502 0 -1.965843e-07)
(0.109889 0.01248 0 0.01180501 0 -1.965672e-07)
(0.09214867 0.01065678 0 0.0103042 0 -1.605403e-07)
(0.09214862 0.01065678 0 0.01030419 0 -1.605264e-07)
(0.07725323 0.009115885 0 0.008977563 0 -1.272695e-07)
(0.07725319 0.009115881 0 0.008977559 0 -1.272597e-07)
(0.06482828 0.00782116 0 0.007817711 0 -9.862644e-08)
(0.06482825 0.007821157 0 0.007817707 0 -9.861839e-08)
(0.05449264 0.006735351 0 0.00680974 0 -7.523457e-08)
(0.05449262 0.006735349 0 0.006809738 0 -7.522928e-08)
(0.04589227 0.005823597 0 0.005935484 0 -5.684576e-08)
(0.04589225 0.005823596 0 0.005935482 0 -5.684058e-08)
(0.03871767 0.005055255 0 0.005176453 0 -4.274709e-08)
(0.03871766 0.005055255 0 0.005176452 0 -4.274554e-08)
(0.03270885 0.004404463 0 0.004515505 0 -3.210528e-08)
(0.03270884 0.004404462 0 0.004515504 0 -3.210413e-08)
(0.02765279 0.003849928 0 0.003937572 0 -2.413936e-08)
(0.02765279 0.003849928 0 0.003937571 0 -2.413811e-08)
(0.02337749 0.003374385 0 0.003429824 0 -1.819697e-08)
(0.02337749 0.003374384 0 0.003429823 0 -1.819603e-08)
(0.01974516 0.002963934 0 0.002981534 0 -1.377633e-08)
(0.01974515 0.002963934 0 0.002981534 0 -1.377555e-08)
(0.01664638 0.002607498 0 0.002583974 0 -1.046758e-08)
(0.01664638 0.002607498 0 0.002583974 0 -1.04671e-08)
(0.01399337 0.002296161 0 0.002229876 0 -7.932055e-09)
(0.01399337 0.002296161 0 0.002229876 0 -7.93187e-09)
(0.0117113 0.00202229 0 0.001912444 0 -6.050703e-09)
(0.0117113 0.00202229 0 0.001912444 0 -6.050723e-09)
(0.009741552 0.001779645 0 0.001627256 0 -4.64498e-09)
(0.009741552 0.001779645 0 0.001627256 0 -4.645241e-09)
(0.008036989 0.001562893 0 0.001371348 0 -3.55556e-09)
(0.008036989 0.001562893 0 0.001371348 0 -3.555861e-09)
(0.006557421 0.001367364 0 0.001141622 0 -2.743623e-09)
(0.006557421 0.001367364 0 0.001141622 0 -2.743869e-09)
(0.005271957 0.001189348 0 0.0009356173 0 -2.146594e-09)
(0.005271957 0.001189348 0 0.0009356173 0 -2.146527e-09)
(0.004157966 0.001025992 0 0.0007517018 0 -1.692457e-09)
(0.004157966 0.001025992 0 0.0007517018 0 -1.691109e-09)
(0.003197108 0.0008749972 0 0.0005883405 0 -1.390231e-09)
(0.003197108 0.0008749973 0 0.0005883406 0 -1.385409e-09)
(0.002380847 0.0007349399 0 0.0004460219 0 -1.047135e-09)
(0.002380847 0.00073494 0 0.0004460219 0 -1.036705e-09)
(0.001685779 0.0006038241 0 0.0003202061 0 -1.118103e-09)
(0.001685779 0.0006038241 0 0.0003202061 0 -1.101512e-09)
(0.001148947 0.00048269 0 0.0002244268 0 -1.504825e-10)
(0.001148947 0.00048269 0 0.0002244268 0 -1.38244e-10)
(0.0006223271 0.0003651866 0 0.0001146007 0 -2.24351e-09)
(0.0006223269 0.0003651866 0 0.0001146007 0 -2.267911e-09)
(0.0005473547 0.0002631408 0 0.0001318528 0 2.113748e-09)
(0.0005473548 0.0002631408 0 0.0001318528 0 2.06006e-09)
(-0.0001868921 0.0001499681 0 -7.531452e-05 0 -2.934883e-09)
(-0.0001868921 0.0001499682 0 -7.531451e-05 0 -2.921027e-09)
(0.0001945666 5.236915e-05 0 6.067362e-05 0 7.877252e-10)
(0.0001945666 5.23692e-05 0 6.067362e-05 0 7.6915e-10)
)
;

boundaryField
{
    leftandright
    {
        type            cyclic;
        value           nonuniform List<symmTensor> 
150
(
(2.129672 0.06543191 0 1.078141e-05 0 5.043856e-06)
(2.126701 0.06539762 0 1.214508e-05 0 4.988225e-06)
(2.12079 0.06534341 0 1.640658e-05 0 5.18688e-06)
(2.111066 0.06526571 0 2.588629e-05 0 5.461381e-06)
(2.096316 0.06516107 0 4.439536e-05 0 5.485982e-06)
(2.075724 0.06504759 0 7.780958e-05 0 5.126397e-06)
(2.049376 0.06497626 0 0.0001338858 0 4.661702e-06)
(2.017951 0.06502315 0 0.0002219305 0 4.69625e-06)
(1.980762 0.06523786 0 0.0003531247 0 5.205212e-06)
(1.93459 0.06559122 0 0.0005447972 0 4.76001e-06)
(1.878706 0.0660793 0 0.0008202907 0 2.885437e-06)
(1.816233 0.06675867 0 0.001182659 0 3.601377e-07)
(1.752721 0.06771829 0 0.001640537 0 -1.251617e-06)
(1.690651 0.06895548 0 0.00220265 0 -1.973506e-06)
(1.630972 0.07043113 0 0.002877979 0 -2.136689e-06)
(1.573902 0.07209069 0 0.003675367 0 -2.009422e-06)
(1.519295 0.07387008 0 0.004602612 0 -1.755259e-06)
(1.466814 0.07569758 0 0.005665375 0 -1.465642e-06)
(1.416033 0.07749601 0 0.006866108 0 -1.189985e-06)
(1.366506 0.0791859 0 0.008203131 0 -9.528293e-07)
(1.317821 0.08068932 0 0.009669918 0 -7.630912e-07)
(1.269625 0.08193387 0 0.0112547 0 -6.199176e-07)
(1.221647 0.08285615 0 0.01294037 0 -5.170078e-07)
(1.173694 0.08340435 0 0.01470469 0 -4.458546e-07)
(1.125644 0.08353979 0 0.01652082 0 -3.979429e-07)
(1.077434 0.08323746 0 0.01835797 0 -3.659871e-07)
(1.029045 0.08248559 0 0.02018226 0 -3.444116e-07)
(0.9804918 0.0812846 0 0.02195769 0 -3.293309e-07)
(0.9318077 0.07964562 0 0.02364709 0 -3.182681e-07)
(0.8830419 0.07758881 0 0.02521315 0 -3.097873e-07)
(0.8342529 0.07514164 0 0.02661943 0 -3.031471e-07)
(0.7855072 0.07233731 0 0.02783133 0 -2.980226e-07)
(0.7368788 0.06921327 0 0.02881707 0 -2.94318e-07)
(0.6884513 0.06581008 0 0.02954864 0 -2.920924e-07)
(0.6403203 0.06217045 0 0.03000272 0 -2.914812e-07)
(0.5925987 0.05833876 0 0.03016168 0 -2.923015e-07)
(0.5454195 0.05436034 0 0.03001424 0 -2.944805e-07)
(0.49894 0.05028129 0 0.0295562 0 -2.979487e-07)
(0.4533486 0.04614858 0 0.0287914 0 -3.025081e-07)
(0.4088702 0.04201028 0 0.02773263 0 -3.077779e-07)
(0.3657711 0.03791585 0 0.02640269 0 -3.130897e-07)
(0.3243611 0.0339162 0 0.02483514 0 -3.173786e-07)
(0.2849896 0.03006326 0 0.02307461 0 -3.191079e-07)
(0.2480307 0.02640864 0 0.02117607 0 -3.163425e-07)
(0.2138561 0.02300101 0 0.01920246 0 -3.07077e-07)
(0.1827928 0.0198821 0 0.01722024 0 -2.898498e-07)
(0.1550736 0.01708209 0 0.01529309 0 -2.644567e-07)
(0.1307936 0.01461561 0 0.01347506 0 -2.323845e-07)
(0.109889 0.01248 0 0.01180501 0 -1.965757e-07)
(0.09214864 0.01065678 0 0.0103042 0 -1.605333e-07)
(0.07725321 0.009115883 0 0.008977561 0 -1.272646e-07)
(0.06482826 0.007821158 0 0.007817709 0 -9.862242e-08)
(0.05449263 0.00673535 0 0.006809739 0 -7.523192e-08)
(0.04589226 0.005823596 0 0.005935483 0 -5.684317e-08)
(0.03871766 0.005055255 0 0.005176452 0 -4.274632e-08)
(0.03270884 0.004404462 0 0.004515504 0 -3.210471e-08)
(0.02765279 0.003849928 0 0.003937571 0 -2.413873e-08)
(0.02337749 0.003374385 0 0.003429823 0 -1.81965e-08)
(0.01974515 0.002963934 0 0.002981534 0 -1.377594e-08)
(0.01664638 0.002607498 0 0.002583974 0 -1.046734e-08)
(0.01399337 0.002296161 0 0.002229876 0 -7.931963e-09)
(0.0117113 0.00202229 0 0.001912444 0 -6.050713e-09)
(0.009741552 0.001779645 0 0.001627256 0 -4.645111e-09)
(0.008036989 0.001562893 0 0.001371348 0 -3.55571e-09)
(0.006557421 0.001367364 0 0.001141622 0 -2.743746e-09)
(0.005271957 0.001189348 0 0.0009356173 0 -2.14656e-09)
(0.004157966 0.001025992 0 0.0007517018 0 -1.691783e-09)
(0.003197108 0.0008749972 0 0.0005883406 0 -1.38782e-09)
(0.002380847 0.00073494 0 0.0004460219 0 -1.04192e-09)
(0.001685779 0.0006038241 0 0.0003202061 0 -1.109807e-09)
(0.001148947 0.00048269 0 0.0002244268 0 -1.443633e-10)
(0.000622327 0.0003651866 0 0.0001146007 0 -2.25571e-09)
(0.0005473548 0.0002631408 0 0.0001318528 0 2.086904e-09)
(-0.0001868921 0.0001499681 0 -7.531452e-05 0 -2.927955e-09)
(0.0001945666 5.236917e-05 0 6.067362e-05 0 7.784376e-10)
(2.129672 0.06543191 0 1.078141e-05 0 5.043856e-06)
(2.126701 0.06539762 0 1.214508e-05 0 4.988225e-06)
(2.12079 0.06534341 0 1.640658e-05 0 5.18688e-06)
(2.111066 0.06526571 0 2.588629e-05 0 5.461381e-06)
(2.096316 0.06516107 0 4.439536e-05 0 5.485982e-06)
(2.075724 0.06504759 0 7.780958e-05 0 5.126397e-06)
(2.049376 0.06497626 0 0.0001338858 0 4.661702e-06)
(2.017951 0.06502315 0 0.0002219305 0 4.69625e-06)
(1.980762 0.06523786 0 0.0003531247 0 5.205212e-06)
(1.93459 0.06559122 0 0.0005447972 0 4.76001e-06)
(1.878706 0.0660793 0 0.0008202907 0 2.885437e-06)
(1.816233 0.06675867 0 0.001182659 0 3.601377e-07)
(1.752721 0.06771829 0 0.001640537 0 -1.251617e-06)
(1.690651 0.06895548 0 0.00220265 0 -1.973506e-06)
(1.630972 0.07043113 0 0.002877979 0 -2.136689e-06)
(1.573902 0.07209069 0 0.003675367 0 -2.009422e-06)
(1.519295 0.07387008 0 0.004602612 0 -1.755259e-06)
(1.466814 0.07569758 0 0.005665375 0 -1.465642e-06)
(1.416033 0.07749601 0 0.006866108 0 -1.189985e-06)
(1.366506 0.0791859 0 0.008203131 0 -9.528293e-07)
(1.317821 0.08068932 0 0.009669918 0 -7.630912e-07)
(1.269625 0.08193387 0 0.0112547 0 -6.199176e-07)
(1.221647 0.08285615 0 0.01294037 0 -5.170078e-07)
(1.173694 0.08340435 0 0.01470469 0 -4.458546e-07)
(1.125644 0.08353979 0 0.01652082 0 -3.979429e-07)
(1.077434 0.08323746 0 0.01835797 0 -3.659871e-07)
(1.029045 0.08248559 0 0.02018226 0 -3.444116e-07)
(0.9804918 0.0812846 0 0.02195769 0 -3.293309e-07)
(0.9318077 0.07964562 0 0.02364709 0 -3.182681e-07)
(0.8830419 0.07758881 0 0.02521315 0 -3.097873e-07)
(0.8342529 0.07514164 0 0.02661943 0 -3.031471e-07)
(0.7855072 0.07233731 0 0.02783133 0 -2.980226e-07)
(0.7368788 0.06921327 0 0.02881707 0 -2.94318e-07)
(0.6884513 0.06581008 0 0.02954864 0 -2.920924e-07)
(0.6403203 0.06217045 0 0.03000272 0 -2.914812e-07)
(0.5925987 0.05833876 0 0.03016168 0 -2.923015e-07)
(0.5454195 0.05436034 0 0.03001424 0 -2.944805e-07)
(0.49894 0.05028129 0 0.0295562 0 -2.979487e-07)
(0.4533486 0.04614858 0 0.0287914 0 -3.025081e-07)
(0.4088702 0.04201028 0 0.02773263 0 -3.077779e-07)
(0.3657711 0.03791585 0 0.02640269 0 -3.130897e-07)
(0.3243611 0.0339162 0 0.02483514 0 -3.173786e-07)
(0.2849896 0.03006326 0 0.02307461 0 -3.191079e-07)
(0.2480307 0.02640864 0 0.02117607 0 -3.163425e-07)
(0.2138561 0.02300101 0 0.01920246 0 -3.07077e-07)
(0.1827928 0.0198821 0 0.01722024 0 -2.898498e-07)
(0.1550736 0.01708209 0 0.01529309 0 -2.644567e-07)
(0.1307936 0.01461561 0 0.01347506 0 -2.323845e-07)
(0.109889 0.01248 0 0.01180501 0 -1.965757e-07)
(0.09214864 0.01065678 0 0.0103042 0 -1.605333e-07)
(0.07725321 0.009115883 0 0.008977561 0 -1.272646e-07)
(0.06482826 0.007821158 0 0.007817709 0 -9.862242e-08)
(0.05449263 0.00673535 0 0.006809739 0 -7.523192e-08)
(0.04589226 0.005823596 0 0.005935483 0 -5.684317e-08)
(0.03871766 0.005055255 0 0.005176452 0 -4.274632e-08)
(0.03270884 0.004404462 0 0.004515504 0 -3.210471e-08)
(0.02765279 0.003849928 0 0.003937571 0 -2.413873e-08)
(0.02337749 0.003374385 0 0.003429823 0 -1.81965e-08)
(0.01974515 0.002963934 0 0.002981534 0 -1.377594e-08)
(0.01664638 0.002607498 0 0.002583974 0 -1.046734e-08)
(0.01399337 0.002296161 0 0.002229876 0 -7.931963e-09)
(0.0117113 0.00202229 0 0.001912444 0 -6.050713e-09)
(0.009741552 0.001779645 0 0.001627256 0 -4.645111e-09)
(0.008036989 0.001562893 0 0.001371348 0 -3.55571e-09)
(0.006557421 0.001367364 0 0.001141622 0 -2.743746e-09)
(0.005271957 0.001189348 0 0.0009356173 0 -2.14656e-09)
(0.004157966 0.001025992 0 0.0007517018 0 -1.691783e-09)
(0.003197108 0.0008749972 0 0.0005883406 0 -1.38782e-09)
(0.002380847 0.00073494 0 0.0004460219 0 -1.04192e-09)
(0.001685779 0.0006038241 0 0.0003202061 0 -1.109807e-09)
(0.001148947 0.00048269 0 0.0002244268 0 -1.443633e-10)
(0.000622327 0.0003651866 0 0.0001146007 0 -2.25571e-09)
(0.0005473548 0.0002631408 0 0.0001318528 0 2.086904e-09)
(-0.0001868921 0.0001499681 0 -7.531452e-05 0 -2.927955e-09)
(0.0001945666 5.236917e-05 0 6.067362e-05 0 7.784376e-10)
)
;
    }
    wall
    {
        type            calculated;
        value           nonuniform List<symmTensor> 2((2.129671 0.06543191 0 1.078141e-05 0 5.043851e-06) (2.129672 0.06543191 0 1.07814e-05 0 5.043861e-06));
    }
    frontAndBack
    {
        type            empty;
    }
    middle
    {
        type            symmetryPlane;
        value           nonuniform List<symmTensor> 2((0.0001945666 0 0 6.067362e-05 0 7.877252e-10) (0.0001945666 0 0 6.067362e-05 0 7.6915e-10));
    }
}


// ************************************************************************* //
