/*--------------------------------*- C++ -*----------------------------------*\
| =========                 |                                                 |
| \\      /  F ield         | foam-extend: Open Source CFD                    |
|  \\    /   O peration     | Version:     4.0                                |
|   \\  /    A nd           | Web:         http://www.foam-extend.org         |
|    \\/     M anipulation  |                                                 |
\*---------------------------------------------------------------------------*/
FoamFile
{
    version     2.0;
    format      ascii;
    class       volScalarField;
    location    "1000";
    object      trC;
}
// * * * * * * * * * * * * * * * * * * * * * * * * * * * * * * * * * * * * * //

dimensions      [0 0 0 0 0 0 0];

internalField   nonuniform List<scalar> 
150
(
336.4053
336.4053
336.1131
336.1131
335.5309
335.5309
334.5707
334.5707
333.1085
333.1085
331.0551
331.0551
328.4073
328.4073
325.2192
325.2192
321.4028
321.4028
316.5965
316.5965
310.6756
310.6756
303.9189
303.9189
296.8992
296.8992
289.8906
289.8906
283.0126
283.0126
276.307
276.307
269.7731
269.7731
263.3847
263.3848
257.1009
257.1009
250.8733
250.8733
244.653
244.653
238.3947
238.3947
232.0598
232.0598
225.617
225.617
219.0422
219.0422
212.3175
212.3175
205.4302
205.4302
198.3708
198.3708
191.1328
191.1328
183.7114
183.7113
176.1032
176.1031
168.3065
168.3065
160.3217
160.3217
152.1515
152.1515
143.8021
143.8021
135.2849
135.2849
126.6173
126.6173
117.8247
117.8247
108.9426
108.9426
100.0188
100.0187
91.1159
91.11586
82.31329
82.31325
73.70733
73.7073
65.40923
65.4092
57.53864
57.53861
50.21259
50.21256
43.53084
43.53081
37.56124
37.56122
32.33006
32.33004
27.82097
27.82096
23.98283
23.98282
20.74258
20.74257
18.01848
18.01847
15.73023
15.73023
13.805
13.805
12.17997
12.17997
10.80265
10.80265
9.629996
9.629995
8.627105
8.627104
7.766016
7.766015
7.024084
7.024084
6.381724
6.381723
5.823759
5.823759
5.338091
5.33809
4.914216
4.914216
4.54403
4.54403
4.221637
4.221637
3.9422
3.9422
3.703796
3.703796
3.499537
3.499537
3.342062
3.342062
3.183576
3.183576
3.169201
3.169201
3
3
3.063592
3.063592
)
;

boundaryField
{
    leftandright
    {
        type            cyclic;
        value           nonuniform List<scalar> 
150
(
336.4053
336.1131
335.5309
334.5707
333.1085
331.0551
328.4073
325.2192
321.4028
316.5965
310.6756
303.9189
296.8992
289.8906
283.0126
276.307
269.7731
263.3848
257.1009
250.8733
244.653
238.3947
232.0598
225.617
219.0422
212.3175
205.4302
198.3708
191.1328
183.7113
176.1031
168.3065
160.3217
152.1515
143.8021
135.2849
126.6173
117.8247
108.9426
100.0188
91.11588
82.31327
73.70731
65.40922
57.53863
50.21257
43.53082
37.56123
32.33005
27.82096
23.98282
20.74258
18.01848
15.73023
13.805
12.17997
10.80265
9.629996
8.627105
7.766016
7.024084
6.381723
5.823759
5.338091
4.914216
4.54403
4.221637
3.9422
3.703796
3.499537
3.342062
3.183576
3.169201
3
3.063592
336.4053
336.1131
335.5309
334.5707
333.1085
331.0551
328.4073
325.2192
321.4028
316.5965
310.6756
303.9189
296.8992
289.8906
283.0126
276.307
269.7731
263.3848
257.1009
250.8733
244.653
238.3947
232.0598
225.617
219.0422
212.3175
205.4302
198.3708
191.1328
183.7113
176.1031
168.3065
160.3217
152.1515
143.8021
135.2849
126.6173
117.8247
108.9426
100.0188
91.11588
82.31327
73.70731
65.40922
57.53863
50.21257
43.53082
37.56123
32.33005
27.82096
23.98282
20.74258
18.01848
15.73023
13.805
12.17997
10.80265
9.629996
8.627105
7.766016
7.024084
6.381723
5.823759
5.338091
4.914216
4.54403
4.221637
3.9422
3.703796
3.499537
3.342062
3.183576
3.169201
3
3.063592
)
;
    }
    wall
    {
        type            calculated;
        value           nonuniform List<scalar> 2(336.4053 336.4053);
    }
    frontAndBack
    {
        type            empty;
    }
    middle
    {
        type            symmetryPlane;
        value           nonuniform List<scalar> 2(3.063592 3.063592);
    }
}


// ************************************************************************* //
