/*--------------------------------*- C++ -*----------------------------------*\
| =========                 |                                                 |
| \\      /  F ield         | foam-extend: Open Source CFD                    |
|  \\    /   O peration     | Version:     4.0                                |
|   \\  /    A nd           | Web:         http://www.foam-extend.org         |
|    \\/     M anipulation  |                                                 |
\*---------------------------------------------------------------------------*/
FoamFile
{
    version     2.0;
    format      ascii;
    class       volVectorField;
    location    "1000";
    object      U;
}
// * * * * * * * * * * * * * * * * * * * * * * * * * * * * * * * * * * * * * //

dimensions      [0 1 -1 0 0 0 0];

internalField   nonuniform List<vector> 
150
(
(0.2555579 4.797389e-06 0)
(0.2555579 4.797475e-06 0)
(0.7789868 1.236821e-05 0)
(0.7789868 1.236837e-05 0)
(1.328025 1.4989e-05 0)
(1.328025 1.498915e-05 0)
(1.902934 1.518294e-05 0)
(1.902934 1.518307e-05 0)
(2.503018 1.30126e-05 0)
(2.503018 1.301271e-05 0)
(3.126448 9.083863e-06 0)
(3.126448 9.08398e-06 0)
(3.770386 4.339609e-06 0)
(3.770386 4.339743e-06 0)
(4.431397 -1.594738e-06 0)
(4.431397 -1.594585e-06 0)
(5.105982 -1.06022e-05 0)
(5.105982 -1.060203e-05 0)
(5.788806 -1.837822e-05 0)
(5.788806 -1.837803e-05 0)
(6.468764 -1.952145e-05 0)
(6.468764 -1.952125e-05 0)
(7.13548 -1.803996e-05 0)
(7.13548 -1.803976e-05 0)
(7.783732 -1.685728e-05 0)
(7.783732 -1.685708e-05 0)
(8.409678 -1.500024e-05 0)
(8.409678 -1.500005e-05 0)
(9.010716 -1.254702e-05 0)
(9.010716 -1.254683e-05 0)
(9.585283 -9.842935e-06 0)
(9.585283 -9.842756e-06 0)
(10.13267 -7.186958e-06 0)
(10.13267 -7.186791e-06 0)
(10.65286 -4.76578e-06 0)
(10.65286 -4.765628e-06 0)
(11.14632 -2.67977e-06 0)
(11.14632 -2.679634e-06 0)
(11.61395 -9.671638e-07 0)
(11.61395 -9.670457e-07 0)
(12.05688 3.765377e-07 0)
(12.05688 3.76637e-07 0)
(12.47643 1.382352e-06 0)
(12.47643 1.382432e-06 0)
(12.87404 2.095137e-06 0)
(12.87404 2.095196e-06 0)
(13.25119 2.564623e-06 0)
(13.25119 2.564663e-06 0)
(13.60933 2.839604e-06 0)
(13.60933 2.839624e-06 0)
(13.94992 2.964538e-06 0)
(13.94992 2.964539e-06 0)
(14.27434 2.977892e-06 0)
(14.27434 2.977876e-06 0)
(14.58392 2.911681e-06 0)
(14.58392 2.911649e-06 0)
(14.87989 2.791755e-06 0)
(14.87989 2.791709e-06 0)
(15.16342 2.638509e-06 0)
(15.16342 2.638452e-06 0)
(15.43558 2.467838e-06 0)
(15.43558 2.467772e-06 0)
(15.69737 2.292439e-06 0)
(15.69737 2.292366e-06 0)
(15.94971 2.122908e-06 0)
(15.94971 2.122831e-06 0)
(16.19344 1.966027e-06 0)
(16.19344 1.965949e-06 0)
(16.42934 1.803028e-06 0)
(16.42934 1.802951e-06 0)
(16.65812 1.619672e-06 0)
(16.65812 1.619597e-06 0)
(16.88042 1.429679e-06 0)
(16.88042 1.429607e-06 0)
(17.09683 1.243812e-06 0)
(17.09683 1.243745e-06 0)
(17.30788 1.068683e-06 0)
(17.30788 1.068629e-06 0)
(17.51406 9.098983e-07 0)
(17.51406 9.098614e-07 0)
(17.71579 7.751082e-07 0)
(17.71579 7.750849e-07 0)
(17.91348 6.763028e-07 0)
(17.91348 6.762968e-07 0)
(18.10745 6.308708e-07 0)
(18.10745 6.308872e-07 0)
(18.29803 6.595194e-07 0)
(18.29803 6.595592e-07 0)
(18.48546 7.791292e-07 0)
(18.48546 7.791958e-07 0)
(18.66998 9.913739e-07 0)
(18.66998 9.914592e-07 0)
(18.85176 1.273124e-06 0)
(18.85176 1.273215e-06 0)
(19.03095 1.577574e-06 0)
(19.03095 1.577679e-06 0)
(19.20767 1.849588e-06 0)
(19.20767 1.849699e-06 0)
(19.38203 2.047146e-06 0)
(19.38203 2.04725e-06 0)
(19.55407 2.154606e-06 0)
(19.55407 2.154702e-06 0)
(19.72384 2.180387e-06 0)
(19.72384 2.180471e-06 0)
(19.89136 2.144497e-06 0)
(19.89136 2.144566e-06 0)
(20.05663 2.066072e-06 0)
(20.05663 2.066131e-06 0)
(20.21961 1.95675e-06 0)
(20.21961 1.956799e-06 0)
(20.38023 1.819546e-06 0)
(20.38023 1.819577e-06 0)
(20.53841 1.652282e-06 0)
(20.53841 1.652304e-06 0)
(20.69399 1.43855e-06 0)
(20.69399 1.438564e-06 0)
(20.84683 1.136851e-06 0)
(20.84683 1.136859e-06 0)
(20.9967 5.020564e-07 0)
(20.9967 5.020597e-07 0)
(21.14337 1.237086e-06 0)
(21.14337 1.237086e-06 0)
(21.28654 3.623512e-06 0)
(21.28654 3.623507e-06 0)
(21.42589 4.29856e-06 0)
(21.42589 4.29855e-06 0)
(21.56094 3.646261e-06 0)
(21.56094 3.646248e-06 0)
(21.6911 3.348718e-06 0)
(21.6911 3.348703e-06 0)
(21.81559 3.207162e-06 0)
(21.81559 3.207146e-06 0)
(21.9335 2.41725e-06 0)
(21.9335 2.417233e-06 0)
(22.04378 4.276567e-06 0)
(22.04378 4.27655e-06 0)
(22.14523 -5.038317e-06 0)
(22.14523 -5.038333e-06 0)
(22.23659 2.879172e-05 0)
(22.23659 2.879171e-05 0)
(22.31651 -9.71617e-05 0)
(22.31651 -9.716172e-05 0)
(22.38362 0.000340334 0)
(22.38362 0.000340334 0)
(22.43654 -0.001186989 0)
(22.43654 -0.001186989 0)
(22.47377 0.003891559 0)
(22.47377 0.003891559 0)
(22.49354 -0.007680729 0)
(22.49354 -0.007680729 0)
)
;

boundaryField
{
    leftandright
    {
        type            cyclic;
        value           nonuniform List<vector> 
150
(
(0.2555579 4.797432e-06 0)
(0.7789868 1.236829e-05 0)
(1.328025 1.498908e-05 0)
(1.902934 1.518301e-05 0)
(2.503018 1.301266e-05 0)
(3.126448 9.083922e-06 0)
(3.770386 4.339676e-06 0)
(4.431397 -1.594661e-06 0)
(5.105982 -1.060211e-05 0)
(5.788806 -1.837813e-05 0)
(6.468764 -1.952135e-05 0)
(7.13548 -1.803986e-05 0)
(7.783732 -1.685718e-05 0)
(8.409678 -1.500014e-05 0)
(9.010716 -1.254693e-05 0)
(9.585283 -9.842845e-06 0)
(10.13267 -7.186875e-06 0)
(10.65286 -4.765704e-06 0)
(11.14632 -2.679702e-06 0)
(11.61395 -9.671047e-07 0)
(12.05688 3.765874e-07 0)
(12.47643 1.382392e-06 0)
(12.87404 2.095167e-06 0)
(13.25119 2.564643e-06 0)
(13.60933 2.839614e-06 0)
(13.94992 2.964538e-06 0)
(14.27434 2.977884e-06 0)
(14.58392 2.911665e-06 0)
(14.87989 2.791732e-06 0)
(15.16342 2.638481e-06 0)
(15.43558 2.467805e-06 0)
(15.69737 2.292403e-06 0)
(15.94971 2.122869e-06 0)
(16.19344 1.965988e-06 0)
(16.42934 1.802989e-06 0)
(16.65812 1.619634e-06 0)
(16.88042 1.429643e-06 0)
(17.09683 1.243779e-06 0)
(17.30788 1.068656e-06 0)
(17.51406 9.098798e-07 0)
(17.71579 7.750966e-07 0)
(17.91348 6.762998e-07 0)
(18.10745 6.30879e-07 0)
(18.29803 6.595393e-07 0)
(18.48546 7.791625e-07 0)
(18.66998 9.914165e-07 0)
(18.85176 1.27317e-06 0)
(19.03095 1.577627e-06 0)
(19.20767 1.849643e-06 0)
(19.38203 2.047198e-06 0)
(19.55407 2.154654e-06 0)
(19.72384 2.180429e-06 0)
(19.89136 2.144531e-06 0)
(20.05663 2.066101e-06 0)
(20.21961 1.956775e-06 0)
(20.38023 1.819562e-06 0)
(20.53841 1.652293e-06 0)
(20.69399 1.438557e-06 0)
(20.84683 1.136855e-06 0)
(20.9967 5.020581e-07 0)
(21.14337 1.237086e-06 0)
(21.28654 3.62351e-06 0)
(21.42589 4.298555e-06 0)
(21.56094 3.646254e-06 0)
(21.6911 3.348711e-06 0)
(21.81559 3.207154e-06 0)
(21.9335 2.417241e-06 0)
(22.04378 4.276559e-06 0)
(22.14523 -5.038325e-06 0)
(22.23659 2.879171e-05 0)
(22.31651 -9.716171e-05 0)
(22.38362 0.000340334 0)
(22.43654 -0.001186989 0)
(22.47377 0.003891559 0)
(22.49354 -0.007680729 0)
(0.2555579 4.797432e-06 0)
(0.7789868 1.236829e-05 0)
(1.328025 1.498908e-05 0)
(1.902934 1.518301e-05 0)
(2.503018 1.301266e-05 0)
(3.126448 9.083922e-06 0)
(3.770386 4.339676e-06 0)
(4.431397 -1.594661e-06 0)
(5.105982 -1.060211e-05 0)
(5.788806 -1.837813e-05 0)
(6.468764 -1.952135e-05 0)
(7.13548 -1.803986e-05 0)
(7.783732 -1.685718e-05 0)
(8.409678 -1.500014e-05 0)
(9.010716 -1.254693e-05 0)
(9.585283 -9.842845e-06 0)
(10.13267 -7.186875e-06 0)
(10.65286 -4.765704e-06 0)
(11.14632 -2.679702e-06 0)
(11.61395 -9.671047e-07 0)
(12.05688 3.765874e-07 0)
(12.47643 1.382392e-06 0)
(12.87404 2.095167e-06 0)
(13.25119 2.564643e-06 0)
(13.60933 2.839614e-06 0)
(13.94992 2.964538e-06 0)
(14.27434 2.977884e-06 0)
(14.58392 2.911665e-06 0)
(14.87989 2.791732e-06 0)
(15.16342 2.638481e-06 0)
(15.43558 2.467805e-06 0)
(15.69737 2.292403e-06 0)
(15.94971 2.122869e-06 0)
(16.19344 1.965988e-06 0)
(16.42934 1.802989e-06 0)
(16.65812 1.619634e-06 0)
(16.88042 1.429643e-06 0)
(17.09683 1.243779e-06 0)
(17.30788 1.068656e-06 0)
(17.51406 9.098798e-07 0)
(17.71579 7.750966e-07 0)
(17.91348 6.762998e-07 0)
(18.10745 6.30879e-07 0)
(18.29803 6.595393e-07 0)
(18.48546 7.791625e-07 0)
(18.66998 9.914165e-07 0)
(18.85176 1.27317e-06 0)
(19.03095 1.577627e-06 0)
(19.20767 1.849643e-06 0)
(19.38203 2.047198e-06 0)
(19.55407 2.154654e-06 0)
(19.72384 2.180429e-06 0)
(19.89136 2.144531e-06 0)
(20.05663 2.066101e-06 0)
(20.21961 1.956775e-06 0)
(20.38023 1.819562e-06 0)
(20.53841 1.652293e-06 0)
(20.69399 1.438557e-06 0)
(20.84683 1.136855e-06 0)
(20.9967 5.020581e-07 0)
(21.14337 1.237086e-06 0)
(21.28654 3.62351e-06 0)
(21.42589 4.298555e-06 0)
(21.56094 3.646254e-06 0)
(21.6911 3.348711e-06 0)
(21.81559 3.207154e-06 0)
(21.9335 2.417241e-06 0)
(22.04378 4.276559e-06 0)
(22.14523 -5.038325e-06 0)
(22.23659 2.879171e-05 0)
(22.31651 -9.716171e-05 0)
(22.38362 0.000340334 0)
(22.43654 -0.001186989 0)
(22.47377 0.003891559 0)
(22.49354 -0.007680729 0)
)
;
    }
    wall
    {
        type            fixedValue;
        value           uniform (0 0 0);
    }
    frontAndBack
    {
        type            empty;
    }
    middle
    {
        type            symmetryPlane;
        value           nonuniform List<vector> 2((22.49354 0 0) (22.49354 0 0));
    }
}


// ************************************************************************* //
