/*--------------------------------*- C++ -*----------------------------------*\
| =========                 |                                                 |
| \\      /  F ield         | foam-extend: Open Source CFD                    |
|  \\    /   O peration     | Version:     4.0                                |
|   \\  /    A nd           | Web:         http://www.foam-extend.org         |
|    \\/     M anipulation  |                                                 |
\*---------------------------------------------------------------------------*/
FoamFile
{
    version     2.0;
    format      ascii;
    class       volScalarField;
    location    "1000";
    object      v2;
}
// * * * * * * * * * * * * * * * * * * * * * * * * * * * * * * * * * * * * * //

dimensions      [0 2 -2 0 0 0 0];

internalField   nonuniform List<scalar> 
150
(
1.265955e-06
1.265955e-06
6.136611e-05
6.136611e-05
0.0003684519
0.0003684519
0.001206307
0.001206307
0.002902715
0.002902715
0.005785287
0.005785288
0.01014689
0.01014689
0.01622531
0.01622531
0.02419938
0.02419938
0.03416649
0.03416649
0.04606272
0.04606273
0.0597319
0.05973191
0.07502976
0.07502976
0.09178417
0.09178417
0.1098077
0.1098077
0.1289086
0.1289086
0.1489
0.1489
0.1696056
0.1696056
0.1908645
0.1908645
0.2125321
0.2125321
0.2344808
0.2344808
0.2565989
0.2565989
0.2787888
0.2787888
0.3009655
0.3009655
0.323054
0.323054
0.3449877
0.3449877
0.3667066
0.3667066
0.3881557
0.3881557
0.4092837
0.4092838
0.4300421
0.4300422
0.4503843
0.4503843
0.470265
0.470265
0.4896403
0.4896403
0.5084675
0.5084675
0.5267051
0.5267051
0.5443142
0.5443142
0.5612558
0.5612558
0.5774897
0.5774897
0.5929737
0.5929737
0.6076624
0.6076624
0.6215075
0.6215075
0.6344574
0.6344574
0.6464577
0.6464577
0.6574512
0.6574512
0.6673793
0.6673793
0.6761823
0.6761823
0.6838014
0.6838014
0.6901795
0.6901795
0.6952629
0.6952629
0.6990018
0.6990018
0.7013518
0.7013518
0.7022735
0.7022735
0.7017331
0.7017331
0.6997014
0.6997014
0.6961532
0.6961532
0.6910653
0.6910653
0.6844147
0.6844146
0.6761741
0.6761741
0.6663069
0.6663068
0.654758
0.654758
0.6414413
0.6414413
0.6262199
0.6262199
0.6091809
0.6091809
0.59066
0.59066
0.5710128
0.5710128
0.5506252
0.5506252
0.5299209
0.5299209
0.5093654
0.5093654
0.4894641
0.4894641
0.4707539
0.4707539
0.4537878
0.4537878
0.4391204
0.4391204
0.4272909
0.4272909
0.4188405
0.4188405
0.4142964
0.4142964
)
;

boundaryField
{
    leftandright
    {
        type            cyclic;
        value           nonuniform List<scalar> 
150
(
1.265955e-06
6.136611e-05
0.0003684519
0.001206307
0.002902715
0.005785287
0.01014689
0.01622531
0.02419938
0.03416649
0.04606273
0.0597319
0.07502976
0.09178417
0.1098077
0.1289086
0.1489
0.1696056
0.1908645
0.2125321
0.2344808
0.2565989
0.2787888
0.3009655
0.323054
0.3449877
0.3667066
0.3881557
0.4092837
0.4300421
0.4503843
0.470265
0.4896403
0.5084675
0.5267051
0.5443142
0.5612558
0.5774897
0.5929737
0.6076624
0.6215075
0.6344574
0.6464577
0.6574512
0.6673793
0.6761823
0.6838014
0.6901795
0.6952629
0.6990018
0.7013518
0.7022735
0.7017331
0.6997014
0.6961532
0.6910653
0.6844147
0.6761741
0.6663068
0.654758
0.6414413
0.6262199
0.6091809
0.59066
0.5710128
0.5506252
0.5299209
0.5093654
0.4894641
0.4707539
0.4537878
0.4391204
0.4272909
0.4188405
0.4142964
1.265955e-06
6.136611e-05
0.0003684519
0.001206307
0.002902715
0.005785287
0.01014689
0.01622531
0.02419938
0.03416649
0.04606273
0.0597319
0.07502976
0.09178417
0.1098077
0.1289086
0.1489
0.1696056
0.1908645
0.2125321
0.2344808
0.2565989
0.2787888
0.3009655
0.323054
0.3449877
0.3667066
0.3881557
0.4092837
0.4300421
0.4503843
0.470265
0.4896403
0.5084675
0.5267051
0.5443142
0.5612558
0.5774897
0.5929737
0.6076624
0.6215075
0.6344574
0.6464577
0.6574512
0.6673793
0.6761823
0.6838014
0.6901795
0.6952629
0.6990018
0.7013518
0.7022735
0.7017331
0.6997014
0.6961532
0.6910653
0.6844147
0.6761741
0.6663068
0.654758
0.6414413
0.6262199
0.6091809
0.59066
0.5710128
0.5506252
0.5299209
0.5093654
0.4894641
0.4707539
0.4537878
0.4391204
0.4272909
0.4188405
0.4142964
)
;
    }
    wall
    {
        type            fixedValue;
        value           uniform 1e-10;
    }
    frontAndBack
    {
        type            empty;
    }
    middle
    {
        type            symmetryPlane;
        value           nonuniform List<scalar> 2(0.4142964 0.4142964);
    }
}


// ************************************************************************* //
