/*--------------------------------*- C++ -*----------------------------------*\
| =========                 |                                                 |
| \\      /  F ield         | foam-extend: Open Source CFD                    |
|  \\    /   O peration     | Version:     4.0                                |
|   \\  /    A nd           | Web:         http://www.foam-extend.org         |
|    \\/     M anipulation  |                                                 |
\*---------------------------------------------------------------------------*/
FoamFile
{
    version     2.0;
    format      ascii;
    class       volScalarField;
    location    "1000";
    object      yPlus;
}
// * * * * * * * * * * * * * * * * * * * * * * * * * * * * * * * * * * * * * //

dimensions      [0 -1 1 0 0 0 0];

internalField   nonuniform List<scalar> 
150
(
0.2459486
0.2459486
0.7504169
0.7504169
1.28067
1.28067
1.838026
1.838026
2.423871
2.423871
3.03966
3.03966
3.686923
3.686923
4.367271
4.367271
5.082393
5.082393
5.834067
5.834067
6.624161
6.624161
7.45464
7.45464
8.327567
8.327567
9.245112
9.245112
10.20956
10.20956
11.2233
11.2233
12.28885
12.28885
13.40887
13.40887
14.58614
14.58614
15.82358
15.82358
17.12426
17.12426
18.49144
18.49144
19.92849
19.92849
21.43899
21.43899
23.0267
23.0267
24.69557
24.69557
26.44973
26.44973
28.29356
28.29356
30.23163
30.23163
32.26876
32.26876
34.41001
34.41001
36.66071
36.66071
39.02645
39.02645
41.51312
41.51312
44.12688
44.12688
46.87424
46.87424
49.76202
49.76202
52.79741
52.79741
55.98795
55.98795
59.34157
59.34157
62.8666
62.8666
66.5718
66.5718
70.46639
70.46639
74.56005
74.56005
78.86294
78.86294
83.38577
83.38577
88.13978
88.13978
93.13677
93.13677
98.38918
98.38918
103.9101
103.9101
109.7131
109.7131
115.8128
115.8128
122.2243
122.2243
128.9634
128.9634
136.047
136.047
143.4927
143.4927
151.319
151.319
159.5453
159.5453
168.192
168.192
177.2807
177.2807
186.834
186.834
196.8756
196.8756
207.4304
207.4304
218.5247
218.5247
230.1861
230.1861
242.4435
242.4435
255.3274
255.3274
268.8699
268.8699
283.1046
283.1046
298.0669
298.0669
313.7939
313.7939
330.3248
330.3248
347.7006
347.7006
365.9646
365.9646
385.1621
385.1621
)
;

boundaryField
{
    leftandright
    {
        type            cyclic;
        value           nonuniform List<scalar> 
150
(
9.878062
9.903472
9.957698
10.0446
10.16813
10.33224
10.54083
10.79762
11.10614
11.46961
11.89097
12.37284
12.91758
13.5273
14.2039
14.94918
15.76488
16.65273
17.61451
18.65211
19.76755
20.96304
22.24096
23.60394
25.05483
26.59674
28.23303
29.96733
31.80357
33.74594
35.79895
37.9674
40.25643
42.67147
45.21833
47.90313
50.73238
53.71296
56.85214
60.1576
63.63745
67.30023
71.15496
75.21115
79.4788
83.96846
88.69124
93.65882
98.8835
104.3782
110.1566
116.233
122.6225
129.3409
136.4049
143.8321
151.6409
159.8506
168.4817
177.5555
187.0948
197.1231
207.6653
218.7477
230.3978
242.6445
255.5183
269.0512
283.2768
298.2304
313.9492
330.4724
347.8408
366.0978
385.2886
9.878062
9.903472
9.957698
10.0446
10.16813
10.33224
10.54083
10.79762
11.10614
11.46961
11.89097
12.37284
12.91758
13.5273
14.2039
14.94918
15.76488
16.65273
17.61451
18.65211
19.76755
20.96304
22.24096
23.60394
25.05483
26.59674
28.23303
29.96733
31.80357
33.74594
35.79895
37.9674
40.25643
42.67147
45.21833
47.90313
50.73238
53.71296
56.85214
60.1576
63.63745
67.30023
71.15496
75.21115
79.4788
83.96846
88.69124
93.65882
98.8835
104.3782
110.1566
116.233
122.6225
129.3409
136.4049
143.8321
151.6409
159.8506
168.4817
177.5555
187.0948
197.1231
207.6653
218.7477
230.3978
242.6445
255.5183
269.0512
283.2768
298.2304
313.9492
330.4724
347.8408
366.0978
385.2886
)
;
    }
    wall
    {
        type            calculated;
        value           uniform 3.95e-13;
    }
    frontAndBack
    {
        type            empty;
    }
    middle
    {
        type            symmetryPlane;
        value           uniform 395;
    }
}


// ************************************************************************* //
