/*--------------------------------*- C++ -*----------------------------------*\
| =========                 |                                                 |
| \\      /  F ield         | foam-extend: Open Source CFD                    |
|  \\    /   O peration     | Version:     4.0                                |
|   \\  /    A nd           | Web:         http://www.foam-extend.org         |
|    \\/     M anipulation  |                                                 |
\*---------------------------------------------------------------------------*/
FoamFile
{
    version     2.0;
    format      ascii;
    class       volSymmTensorField;
    location    "100";
    object      C;
}
// * * * * * * * * * * * * * * * * * * * * * * * * * * * * * * * * * * * * * //

dimensions      [0 0 0 0 0 0 0];

internalField   nonuniform List<symmTensor> 
150
(
(1997.246 21.22805 0 0.4488541 0 0.445504)
(1997.301 21.22805 0 0.4488532 0 0.4455069)
(1996.993 21.24039 0 0.449307 0 0.445525)
(1997.01 21.24039 0 0.4493231 0 0.4455343)
(1996.534 21.27021 0 0.4503927 0 0.4455828)
(1996.537 21.27021 0 0.4504036 0 0.4455855)
(1995.925 21.3236 0 0.4523514 0 0.4456487)
(1995.925 21.3236 0 0.4523552 0 0.4456492)
(1995.173 21.4089 0 0.4555964 0 0.4457067)
(1995.172 21.4089 0 0.4555944 0 0.4457068)
(1994.337 21.53837 0 0.4607365 0 0.4457248)
(1994.336 21.53837 0 0.4607317 0 0.4457249)
(1993.655 21.72961 0 0.4685853 0 0.4456472)
(1993.653 21.72961 0 0.4685796 0 0.4456474)
(1993.605 22.0064 0 0.4801538 0 0.4453908)
(1993.604 22.0064 0 0.4801482 0 0.445391)
(1994.877 22.39913 0 0.4966831 0 0.444852)
(1994.876 22.39913 0 0.496678 0 0.4448521)
(1998.153 22.94483 0 0.5198014 0 0.4439308)
(1998.152 22.94483 0 0.519797 0 0.4439308)
(2003.555 23.68443 0 0.5519098 0 0.4425673)
(2003.554 23.68443 0 0.551906 0 0.4425673)
(2010.524 24.6609 0 0.5969763 0 0.4407519)
(2010.522 24.6609 0 0.5969731 0 0.4407518)
(2018.824 25.91923 0 0.6593799 0 0.4384757)
(2018.823 25.91923 0 0.6593772 0 0.4384755)
(2029.041 27.50241 0 0.7425872 0 0.4356966)
(2029.041 27.50241 0 0.7425849 0 0.4356964)
(2041.639 29.44769 0 0.8511513 0 0.4323894)
(2041.638 29.44769 0 0.8511493 0 0.4323891)
(2056.252 31.78115 0 0.99075 0 0.4286147)
(2056.252 31.78116 0 0.9907485 0 0.4286144)
(2072.037 34.52046 0 1.168205 0 0.4245277)
(2072.036 34.52046 0 1.168203 0 0.4245275)
(2087.932 37.67508 0 1.391451 0 0.4203546)
(2087.93 37.67508 0 1.39145 0 0.4203543)
(2102.846 41.24537 0 1.669443 0 0.4163566)
(2102.844 41.24537 0 1.669443 0 0.4163564)
(2115.788 45.22185 0 2.012013 0 0.412794)
(2115.786 45.22185 0 2.012012 0 0.4127938)
(2125.95 49.58529 0 2.429696 0 0.4098955)
(2125.948 49.58529 0 2.429696 0 0.4098955)
(2132.742 54.30752 0 2.933524 0 0.4078403)
(2132.74 54.30753 0 2.933524 0 0.40784)
(2135.804 59.35284 0 3.534781 0 0.4067474)
(2135.802 59.35284 0 3.534782 0 0.4067472)
(2134.978 64.67938 0 4.244738 0 0.4066786)
(2134.976 64.67938 0 4.244738 0 0.4066784)
(2130.274 70.24064 0 5.074348 0 0.4076447)
(2130.272 70.24064 0 5.074349 0 0.4076445)
(2121.825 75.98671 0 6.033918 0 0.4096167)
(2121.823 75.9867 0 6.033918 0 0.4096167)
(2109.855 81.86546 0 7.132766 0 0.4125377)
(2109.854 81.86545 0 7.132767 0 0.4125375)
(2094.64 87.82371 0 8.378887 0 0.4163319)
(2094.64 87.8237 0 8.378886 0 0.4163316)
(2076.486 93.80823 0 9.778637 0 0.4209137)
(2076.486 93.80821 0 9.778635 0 0.4209136)
(2055.709 99.76679 0 11.33647 0 0.4261943)
(2055.708 99.76677 0 11.33647 0 0.4261942)
(2032.618 105.6491 0 13.05471 0 0.4320854)
(2032.618 105.6491 0 13.05471 0 0.4320852)
(2007.511 111.4077 0 14.93347 0 0.4385032)
(2007.511 111.4077 0 14.93347 0 0.438503)
(1980.663 116.9987 0 16.97058 0 0.4453701)
(1980.663 116.9987 0 16.97058 0 0.4453699)
(1952.324 122.3823 0 19.16165 0 0.4526167)
(1952.324 122.3823 0 19.16165 0 0.4526165)
(1922.712 127.5233 0 21.50024 0 0.4601825)
(1922.712 127.5233 0 21.50024 0 0.4601823)
(1892.014 132.391 0 23.97807 0 0.4680166)
(1892.014 132.391 0 23.97807 0 0.4680164)
(1860.385 136.9598 0 26.5854 0 0.4760779)
(1860.385 136.9598 0 26.5854 0 0.4760777)
(1827.944 141.2084 0 29.3114 0 0.4843355)
(1827.943 141.2084 0 29.31138 0 0.4843353)
(1794.773 145.1195 0 32.14456 0 0.4927684)
(1794.773 145.1195 0 32.14455 0 0.4927682)
(1760.922 148.6799 0 35.07331 0 0.5013658)
(1760.922 148.6798 0 35.07329 0 0.5013657)
(1726.403 151.8787 0 38.08637 0 0.5101268)
(1726.403 151.8787 0 38.08637 0 0.5101266)
(1691.195 154.7073 0 41.17333 0 0.51906)
(1691.194 154.7073 0 41.17333 0 0.5190598)
(1655.237 157.1578 0 44.325 0 0.5281838)
(1655.238 157.1577 0 44.32497 0 0.5281835)
(1618.439 159.2216 0 47.53354 0 0.537526)
(1618.439 159.2215 0 47.53354 0 0.5375258)
(1580.674 160.8882 0 50.79259 0 0.5471235)
(1580.673 160.8882 0 50.79259 0 0.5471232)
(1541.78 162.1433 0 54.09664 0 0.5570217)
(1541.779 162.1433 0 54.09663 0 0.5570214)
(1501.573 162.9664 0 57.44002 0 0.5672738)
(1501.572 162.9664 0 57.44001 0 0.5672735)
(1459.842 163.3297 0 60.81521 0 0.5779404)
(1459.842 163.3297 0 60.8152 0 0.5779401)
(1416.363 163.1955 0 64.2098 0 0.5890872)
(1416.363 163.1955 0 64.2098 0 0.5890866)
(1370.904 162.515 0 67.60281 0 0.6007839)
(1370.904 162.515 0 67.60279 0 0.6007835)
(1323.241 161.2286 0 70.95965 0 0.6131029)
(1323.241 161.2286 0 70.95963 0 0.6131026)
(1273.167 159.266 0 74.22637 0 0.6261171)
(1273.167 159.266 0 74.22635 0 0.6261167)
(1220.497 156.55 0 77.32409 0 0.6398994)
(1220.497 156.55 0 77.32409 0 0.639899)
(1165.075 153.0014 0 80.14449 0 0.6545234)
(1165.075 153.0014 0 80.14446 0 0.654523)
(1106.766 148.5452 0 82.54787 0 0.6700659)
(1106.766 148.5452 0 82.54784 0 0.6700656)
(1045.443 143.1174 0 84.36509 0 0.6866099)
(1045.442 143.1173 0 84.36507 0 0.6866096)
(980.957 136.6704 0 85.4042 0 0.7042495)
(980.9569 136.6704 0 85.40417 0 0.7042492)
(913.1165 129.1745 0 85.4597 0 0.7230957)
(913.1164 129.1745 0 85.45969 0 0.7230954)
(841.654 120.6154 0 84.32446 0 0.7432804)
(841.654 120.6154 0 84.32445 0 0.7432803)
(766.2009 110.9872 0 81.79977 0 0.7649617)
(766.2009 110.9872 0 81.79976 0 0.7649615)
(686.2696 100.2836 0 77.70232 0 0.7883262)
(686.2697 100.2836 0 77.70231 0 0.7883262)
(601.2419 88.48714 0 71.86555 0 0.8135925)
(601.2421 88.48714 0 71.86555 0 0.8135925)
(510.3779 75.56092 0 64.13616 0 0.8410108)
(510.3782 75.56094 0 64.13617 0 0.8410107)
(412.8031 61.43967 0 54.36195 0 0.8708711)
(412.8035 61.43971 0 54.36198 0 0.8708708)
(307.68 46.05359 0 42.4051 0 0.903443)
(307.6808 46.05369 0 42.40518 0 0.9034425)
(196.4354 29.66356 0 28.45498 0 0.9382118)
(196.4367 29.66373 0 28.45512 0 0.9382109)
(94.6179 14.54708 0 14.68246 0 0.9701214)
(94.61921 14.54724 0 14.68261 0 0.9701206)
(35.33445 5.636816 0 6.1909 0 0.9888615)
(35.3349 5.636872 0 6.190954 0 0.9888611)
(14.21286 2.41903 0 3.054265 0 0.9956898)
(14.21294 2.419039 0 3.054275 0 0.9956901)
(7.150968 1.311623 0 1.978638 0 0.997998)
(7.150982 1.311624 0 1.978639 0 0.9979989)
(4.223755 0.8249722 0 1.531137 0 0.9989511)
(4.223759 0.8249726 0 1.531138 0 0.9989524)
(2.591731 0.5226394 0 1.256174 0 0.9994842)
(2.591729 0.5226394 0 1.256174 0 0.9994833)
(1.838908 0.3497872 0 1.165629 0 0.999721)
(1.838909 0.3497872 0 1.165627 0 0.9997184)
(1.172021 0.1774558 0 0.9987617 0 0.9999503)
(1.172021 0.1774559 0 0.9987621 0 0.9999512)
(1.072412 0.06237679 0 1.029543 0 0.9999721)
(1.072411 0.06237678 0 1.029541 0 0.9999708)
)
;

boundaryField
{
    leftandright
    {
        type            cyclic;
        value           nonuniform List<symmTensor> 
150
(
(1997.274 21.22805 0 0.4488537 0 0.4455054)
(1997.002 21.24039 0 0.449315 0 0.4455297)
(1996.535 21.27021 0 0.4503981 0 0.4455841)
(1995.925 21.3236 0 0.4523533 0 0.445649)
(1995.173 21.4089 0 0.4555954 0 0.4457067)
(1994.336 21.53837 0 0.4607341 0 0.4457249)
(1993.654 21.72961 0 0.4685825 0 0.4456473)
(1993.605 22.0064 0 0.480151 0 0.4453909)
(1994.876 22.39913 0 0.4966805 0 0.4448521)
(1998.152 22.94483 0 0.5197992 0 0.4439308)
(2003.554 23.68443 0 0.5519079 0 0.4425673)
(2010.523 24.6609 0 0.5969747 0 0.4407518)
(2018.823 25.91923 0 0.6593785 0 0.4384756)
(2029.041 27.50241 0 0.742586 0 0.4356965)
(2041.638 29.44769 0 0.8511503 0 0.4323893)
(2056.252 31.78115 0 0.9907493 0 0.4286145)
(2072.037 34.52046 0 1.168204 0 0.4245276)
(2087.931 37.67508 0 1.391451 0 0.4203545)
(2102.845 41.24537 0 1.669443 0 0.4163565)
(2115.787 45.22185 0 2.012012 0 0.4127939)
(2125.949 49.58529 0 2.429696 0 0.4098955)
(2132.741 54.30752 0 2.933524 0 0.4078401)
(2135.803 59.35284 0 3.534781 0 0.4067473)
(2134.977 64.67938 0 4.244738 0 0.4066785)
(2130.273 70.24064 0 5.074349 0 0.4076446)
(2121.824 75.98671 0 6.033918 0 0.4096167)
(2109.854 81.86545 0 7.132767 0 0.4125376)
(2094.64 87.82371 0 8.378887 0 0.4163317)
(2076.486 93.80822 0 9.778636 0 0.4209137)
(2055.709 99.76678 0 11.33647 0 0.4261942)
(2032.618 105.6491 0 13.05471 0 0.4320853)
(2007.511 111.4077 0 14.93347 0 0.4385031)
(1980.663 116.9987 0 16.97058 0 0.44537)
(1952.324 122.3823 0 19.16165 0 0.4526166)
(1922.712 127.5233 0 21.50024 0 0.4601824)
(1892.014 132.391 0 23.97807 0 0.4680165)
(1860.385 136.9598 0 26.5854 0 0.4760778)
(1827.944 141.2084 0 29.31139 0 0.4843354)
(1794.773 145.1195 0 32.14456 0 0.4927683)
(1760.922 148.6798 0 35.0733 0 0.5013658)
(1726.403 151.8787 0 38.08637 0 0.5101267)
(1691.195 154.7073 0 41.17333 0 0.5190599)
(1655.238 157.1578 0 44.32498 0 0.5281836)
(1618.439 159.2215 0 47.53354 0 0.5375259)
(1580.673 160.8882 0 50.79259 0 0.5471233)
(1541.78 162.1433 0 54.09663 0 0.5570215)
(1501.573 162.9664 0 57.44001 0 0.5672736)
(1459.842 163.3297 0 60.8152 0 0.5779402)
(1416.363 163.1955 0 64.2098 0 0.5890869)
(1370.904 162.515 0 67.6028 0 0.6007837)
(1323.241 161.2286 0 70.95964 0 0.6131028)
(1273.167 159.266 0 74.22636 0 0.6261169)
(1220.497 156.55 0 77.32409 0 0.6398992)
(1165.075 153.0014 0 80.14447 0 0.6545232)
(1106.766 148.5452 0 82.54786 0 0.6700658)
(1045.442 143.1173 0 84.36508 0 0.6866097)
(980.9569 136.6704 0 85.40419 0 0.7042494)
(913.1165 129.1745 0 85.4597 0 0.7230956)
(841.654 120.6154 0 84.32445 0 0.7432804)
(766.2009 110.9872 0 81.79976 0 0.7649616)
(686.2696 100.2836 0 77.70231 0 0.7883262)
(601.242 88.48714 0 71.86555 0 0.8135925)
(510.3781 75.56093 0 64.13617 0 0.8410107)
(412.8033 61.43969 0 54.36196 0 0.870871)
(307.6804 46.05364 0 42.40514 0 0.9034427)
(196.4361 29.66365 0 28.45505 0 0.9382113)
(94.61856 14.54716 0 14.68253 0 0.970121)
(35.33467 5.636844 0 6.190927 0 0.9888613)
(14.2129 2.419034 0 3.05427 0 0.99569)
(7.150975 1.311624 0 1.978638 0 0.9979984)
(4.223757 0.8249724 0 1.531138 0 0.9989518)
(2.59173 0.5226394 0 1.256174 0 0.9994838)
(1.838908 0.3497872 0 1.165628 0 0.9997197)
(1.172021 0.1774558 0 0.9987619 0 0.9999508)
(1.072411 0.06237679 0 1.029542 0 0.9999715)
(1997.274 21.22805 0 0.4488537 0 0.4455054)
(1997.002 21.24039 0 0.449315 0 0.4455297)
(1996.535 21.27021 0 0.4503981 0 0.4455841)
(1995.925 21.3236 0 0.4523533 0 0.445649)
(1995.173 21.4089 0 0.4555954 0 0.4457067)
(1994.336 21.53837 0 0.4607341 0 0.4457249)
(1993.654 21.72961 0 0.4685825 0 0.4456473)
(1993.605 22.0064 0 0.480151 0 0.4453909)
(1994.876 22.39913 0 0.4966805 0 0.4448521)
(1998.152 22.94483 0 0.5197992 0 0.4439308)
(2003.554 23.68443 0 0.5519079 0 0.4425673)
(2010.523 24.6609 0 0.5969747 0 0.4407518)
(2018.823 25.91923 0 0.6593785 0 0.4384756)
(2029.041 27.50241 0 0.742586 0 0.4356965)
(2041.638 29.44769 0 0.8511503 0 0.4323893)
(2056.252 31.78115 0 0.9907493 0 0.4286145)
(2072.037 34.52046 0 1.168204 0 0.4245276)
(2087.931 37.67508 0 1.391451 0 0.4203545)
(2102.845 41.24537 0 1.669443 0 0.4163565)
(2115.787 45.22185 0 2.012012 0 0.4127939)
(2125.949 49.58529 0 2.429696 0 0.4098955)
(2132.741 54.30752 0 2.933524 0 0.4078401)
(2135.803 59.35284 0 3.534781 0 0.4067473)
(2134.977 64.67938 0 4.244738 0 0.4066785)
(2130.273 70.24064 0 5.074349 0 0.4076446)
(2121.824 75.98671 0 6.033918 0 0.4096167)
(2109.854 81.86545 0 7.132767 0 0.4125376)
(2094.64 87.82371 0 8.378887 0 0.4163317)
(2076.486 93.80822 0 9.778636 0 0.4209137)
(2055.709 99.76678 0 11.33647 0 0.4261942)
(2032.618 105.6491 0 13.05471 0 0.4320853)
(2007.511 111.4077 0 14.93347 0 0.4385031)
(1980.663 116.9987 0 16.97058 0 0.44537)
(1952.324 122.3823 0 19.16165 0 0.4526166)
(1922.712 127.5233 0 21.50024 0 0.4601824)
(1892.014 132.391 0 23.97807 0 0.4680165)
(1860.385 136.9598 0 26.5854 0 0.4760778)
(1827.944 141.2084 0 29.31139 0 0.4843354)
(1794.773 145.1195 0 32.14456 0 0.4927683)
(1760.922 148.6798 0 35.0733 0 0.5013658)
(1726.403 151.8787 0 38.08637 0 0.5101267)
(1691.195 154.7073 0 41.17333 0 0.5190599)
(1655.238 157.1578 0 44.32498 0 0.5281836)
(1618.439 159.2215 0 47.53354 0 0.5375259)
(1580.673 160.8882 0 50.79259 0 0.5471233)
(1541.78 162.1433 0 54.09663 0 0.5570215)
(1501.573 162.9664 0 57.44001 0 0.5672736)
(1459.842 163.3297 0 60.8152 0 0.5779402)
(1416.363 163.1955 0 64.2098 0 0.5890869)
(1370.904 162.515 0 67.6028 0 0.6007837)
(1323.241 161.2286 0 70.95964 0 0.6131028)
(1273.167 159.266 0 74.22636 0 0.6261169)
(1220.497 156.55 0 77.32409 0 0.6398992)
(1165.075 153.0014 0 80.14447 0 0.6545232)
(1106.766 148.5452 0 82.54786 0 0.6700658)
(1045.442 143.1173 0 84.36508 0 0.6866097)
(980.9569 136.6704 0 85.40419 0 0.7042494)
(913.1165 129.1745 0 85.4597 0 0.7230956)
(841.654 120.6154 0 84.32445 0 0.7432804)
(766.2009 110.9872 0 81.79976 0 0.7649616)
(686.2696 100.2836 0 77.70231 0 0.7883262)
(601.242 88.48714 0 71.86555 0 0.8135925)
(510.3781 75.56093 0 64.13617 0 0.8410107)
(412.8033 61.43969 0 54.36196 0 0.870871)
(307.6804 46.05364 0 42.40514 0 0.9034427)
(196.4361 29.66365 0 28.45505 0 0.9382113)
(94.61856 14.54716 0 14.68253 0 0.970121)
(35.33467 5.636844 0 6.190927 0 0.9888613)
(14.2129 2.419034 0 3.05427 0 0.99569)
(7.150975 1.311624 0 1.978638 0 0.9979984)
(4.223757 0.8249724 0 1.531138 0 0.9989518)
(2.59173 0.5226394 0 1.256174 0 0.9994838)
(1.838908 0.3497872 0 1.165628 0 0.9997197)
(1.172021 0.1774558 0 0.9987619 0 0.9999508)
(1.072411 0.06237679 0 1.029542 0 0.9999715)
)
;
    }
    wall
    {
        type            zeroGradient;
    }
    frontAndBack
    {
        type            empty;
    }
    middle
    {
        type            symmetryPlane;
        value           nonuniform List<symmTensor> 2((1.072412 0 0 1.029543 0 0.9999721) (1.072411 0 0 1.029541 0 0.9999708));
    }
}


// ************************************************************************* //
