/*--------------------------------*- C++ -*----------------------------------*\
| =========                 |                                                 |
| \\      /  F ield         | foam-extend: Open Source CFD                    |
|  \\    /   O peration     | Version:     4.0                                |
|   \\  /    A nd           | Web:         http://www.foam-extend.org         |
|    \\/     M anipulation  |                                                 |
\*---------------------------------------------------------------------------*/
FoamFile
{
    version     2.0;
    format      ascii;
    class       volScalarField;
    location    "100";
    object      Ceps1;
}
// * * * * * * * * * * * * * * * * * * * * * * * * * * * * * * * * * * * * * //

dimensions      [0 0 0 0 0 0 0];

internalField   nonuniform List<scalar> 
150
(
7.202796
7.202796
4.117047
4.117047
3.192648
3.192648
2.759314
2.759314
2.51061
2.51061
2.350444
2.350444
2.239203
2.239203
2.157581
2.157581
2.09506
2.09506
2.04546
2.04546
2.004955
2.004955
1.971193
1.971193
1.942328
1.942328
1.916771
1.916771
1.893514
1.893514
1.871943
1.871943
1.851689
1.851689
1.832526
1.832526
1.814318
1.814318
1.796985
1.796985
1.780477
1.780477
1.764764
1.764764
1.749826
1.749826
1.735645
1.735645
1.722206
1.722206
1.709492
1.709492
1.697482
1.697482
1.686154
1.686154
1.675484
1.675484
1.665443
1.665443
1.656002
1.656002
1.647132
1.647132
1.6388
1.6388
1.630975
1.630975
1.623625
1.623625
1.616719
1.616719
1.610225
1.610225
1.604114
1.604114
1.598354
1.598354
1.592917
1.592917
1.587775
1.587775
1.5829
1.5829
1.578264
1.578264
1.573842
1.573842
1.569609
1.569609
1.565541
1.565541
1.561618
1.561618
1.55782
1.55782
1.554132
1.554132
1.550545
1.550545
1.547053
1.547053
1.543658
1.543658
1.540366
1.540366
1.537192
1.537192
1.534152
1.534152
1.531266
1.531266
1.52855
1.52855
1.526021
1.526021
1.523687
1.523687
1.521551
1.521551
1.519606
1.519606
1.51784
1.51784
1.516235
1.516235
1.514765
1.514765
1.513401
1.513401
1.512109
1.512109
1.510864
1.510864
1.509668
1.509668
1.508591
1.508591
1.50763
1.50763
1.506776
1.506776
1.506036
1.506036
1.505432
1.505432
1.504991
1.504991
1.504751
1.504751
)
;

boundaryField
{
    leftandright
    {
        type            cyclic;
        value           nonuniform List<scalar> 
150
(
7.202796
4.117047
3.192648
2.759314
2.51061
2.350444
2.239203
2.157581
2.09506
2.04546
2.004955
1.971193
1.942328
1.916771
1.893514
1.871943
1.851689
1.832526
1.814318
1.796985
1.780477
1.764764
1.749826
1.735645
1.722206
1.709492
1.697482
1.686154
1.675484
1.665443
1.656002
1.647132
1.6388
1.630975
1.623625
1.616719
1.610225
1.604114
1.598354
1.592917
1.587775
1.5829
1.578264
1.573842
1.569609
1.565541
1.561618
1.55782
1.554132
1.550545
1.547053
1.543658
1.540366
1.537192
1.534152
1.531266
1.52855
1.526021
1.523687
1.521551
1.519606
1.51784
1.516235
1.514765
1.513401
1.512109
1.510864
1.509668
1.508591
1.50763
1.506776
1.506036
1.505432
1.504991
1.504751
7.202796
4.117047
3.192648
2.759314
2.51061
2.350444
2.239203
2.157581
2.09506
2.04546
2.004955
1.971193
1.942328
1.916771
1.893514
1.871943
1.851689
1.832526
1.814318
1.796985
1.780477
1.764764
1.749826
1.735645
1.722206
1.709492
1.697482
1.686154
1.675484
1.665443
1.656002
1.647132
1.6388
1.630975
1.623625
1.616719
1.610225
1.604114
1.598354
1.592917
1.587775
1.5829
1.578264
1.573842
1.569609
1.565541
1.561618
1.55782
1.554132
1.550545
1.547053
1.543658
1.540366
1.537192
1.534152
1.531266
1.52855
1.526021
1.523687
1.521551
1.519606
1.51784
1.516235
1.514765
1.513401
1.512109
1.510864
1.509668
1.508591
1.50763
1.506776
1.506036
1.505432
1.504991
1.504751
)
;
    }
    wall
    {
        type            calculated;
        value           uniform 1.463;
    }
    frontAndBack
    {
        type            empty;
    }
    middle
    {
        type            symmetryPlane;
        value           nonuniform List<scalar> 2(1.504751 1.504751);
    }
}


// ************************************************************************* //
