/*--------------------------------*- C++ -*----------------------------------*\
| =========                 |                                                 |
| \\      /  F ield         | foam-extend: Open Source CFD                    |
|  \\    /   O peration     | Version:     4.0                                |
|   \\  /    A nd           | Web:         http://www.foam-extend.org         |
|    \\/     M anipulation  |                                                 |
\*---------------------------------------------------------------------------*/
FoamFile
{
    version     2.0;
    format      ascii;
    class       volSymmTensorField;
    location    "100";
    object      DiffC;
}
// * * * * * * * * * * * * * * * * * * * * * * * * * * * * * * * * * * * * * //

dimensions      [0 0 -1 0 0 0 0];

internalField   nonuniform List<symmTensor> 
150
(
(-15.92912 0.7758917 0 0.0284732 0 0.001320404)
(-18.28228 0.7758917 0 0.02954415 0 0.001727114)
(-10.95794 0.9588882 0 0.03470193 0 0.002030802)
(-9.575077 0.9588882 0 0.03337837 0 0.001264742)
(-6.511043 1.135571 0 0.04210473 0 0.0002732325)
(-5.837053 1.135571 0 0.04203224 0 0.000516138)
(-5.237423 1.360475 0 0.05530586 0 -0.0005318098)
(-5.156996 1.360475 0 0.05537234 0 -0.0004390999)
(-1.907085 1.679898 0 0.072972 0 -0.001807288)
(-1.887207 1.679898 0 0.0731119 0 -0.001788647)
(7.516017 2.106472 0 0.09341856 0 -0.00368997)
(7.50103 2.106472 0 0.0935029 0 -0.003689104)
(23.05284 2.619504 0 0.114717 0 -0.006044142)
(23.11388 2.619504 0 0.1147523 0 -0.00604828)
(41.4311 3.184996 0 0.1367184 0 -0.008424941)
(41.40974 3.184996 0 0.1367305 0 -0.00842752)
(54.90929 3.763636 0 0.1626751 0 -0.01005018)
(54.90766 3.763636 0 0.1626792 0 -0.01005014)
(50.22909 4.255235 0 0.2001516 0 -0.01013096)
(50.20742 4.255235 0 0.2001514 0 -0.01012861)
(29.92572 4.618442 0 0.2625572 0 -0.008868249)
(29.94713 4.618442 0 0.2625563 0 -0.008868158)
(20.46849 4.870701 0 0.315691 0 -0.007726752)
(20.48761 4.870701 0 0.3156882 0 -0.007728176)
(28.38998 4.95178 0 0.3347777 0 -0.007346809)
(28.37199 4.95178 0 0.3347773 0 -0.00734499)
(31.95748 4.837071 0 0.3630462 0 -0.006642235)
(31.95667 4.837071 0 0.3630442 0 -0.006641944)
(21.36253 4.495977 0 0.3968221 0 -0.004646825)
(21.36212 4.496133 0 0.3968231 0 -0.004646712)
(5.988278 4.038755 0 0.4329524 0 -0.00168101)
(5.974785 4.038464 0 0.4329393 0 -0.00168087)
(-8.90154 3.511576 0 0.4683941 0 0.001565445)
(-8.888996 3.51171 0 0.4684152 0 0.001564355)
(-20.69517 2.937436 0 0.5003059 0 0.004484234)
(-20.69493 2.937436 0 0.5003053 0 0.004486275)
(-28.57312 2.33762 0 0.5263536 0 0.006684902)
(-28.57301 2.33762 0 0.5263329 0 0.006684056)
(-32.55154 1.737555 0 0.5448201 0 0.008004421)
(-32.55138 1.737555 0 0.5448386 0 0.008005185)
(-33.29585 1.162204 0 0.5546957 0 0.00848629)
(-33.29563 1.16229 0 0.554687 0 0.008483986)
(-31.59159 0.6332112 0 0.5553764 0 0.008270938)
(-31.59143 0.6330506 0 0.555376 0 0.008273083)
(-28.3647 0.1636711 0 0.546796 0 0.00757367)
(-28.36443 0.1637448 0 0.546789 0 0.007572413)
(-24.34838 -0.2382649 0 0.5291679 0 0.006591351)
(-24.34811 -0.2382649 0 0.5291804 0 0.006591996)
(-20.13447 -0.571331 0 0.5030351 0 0.005495546)
(-20.13419 -0.5713884 0 0.5030233 0 0.005496645)
(-16.06415 -0.8373213 0 0.469213 0 0.004410624)
(-16.05882 -0.8372651 0 0.4692231 0 0.004409087)
(-12.38899 -1.040088 0 0.428812 0 0.003407121)
(-12.39365 -1.040086 0 0.4288025 0 0.00340719)
(-9.211698 -1.185467 0 0.3831315 0 0.002529485)
(-9.211602 -1.185508 0 0.3831318 0 0.002530352)
(-6.536036 -1.279544 0 0.3336715 0 0.001790996)
(-6.539648 -1.279501 0 0.3336836 0 0.001790667)
(-4.369467 -1.329006 0 0.2819221 0 0.00118867)
(-4.362204 -1.328933 0 0.2819146 0 0.001188645)
(-2.640027 -1.340499 0 0.2296272 0 0.0007125594)
(-2.643151 -1.340565 0 0.2296274 0 0.0007126059)
(-1.308605 -1.320703 0 0.1781769 0 0.0003461447)
(-1.308512 -1.320703 0 0.1781772 0 0.0003461686)
(-0.3073111 -1.276205 0 0.1289641 0 7.453135e-05)
(-0.3072217 -1.276205 0 0.1289644 0 7.430812e-05)
(0.4110248 -1.212721 0 0.08321103 0 -0.0001201515)
(0.4111043 -1.212721 0 0.08321136 0 -0.0001198745)
(0.9064387 -1.13644 0 0.0418003 0 -0.000251034)
(0.9065028 -1.13644 0 0.04180059 0 -0.0002509918)
(1.224322 -1.050919 0 0.005450058 0 -0.0003323995)
(1.224375 -1.050919 0 0.00545028 0 -0.0003321743)
(1.397409 -0.9616555 0 -0.02535418 0 -0.0003746888)
(1.395745 -0.9616555 0 -0.02538826 0 -0.0003748332)
(1.458864 -0.871871 0 -0.05057736 0 -0.0003878967)
(1.462236 -0.871871 0 -0.05052618 0 -0.0003878909)
(1.444752 -0.7833755 0 -0.07003049 0 -0.0003792201)
(1.443301 -0.7835178 0 -0.07005786 0 -0.0003790512)
(1.367886 -0.7000017 0 -0.08420273 0 -0.0003552133)
(1.367927 -0.6997216 0 -0.08416045 0 -0.0003554626)
(1.253373 -0.6220524 0 -0.09336809 0 -0.0003212429)
(1.252242 -0.6221749 0 -0.09339271 0 -0.0003210942)
(1.107188 -0.5513978 0 -0.098188 0 -0.0002806237)
(1.110548 -0.5515033 0 -0.09822022 0 -0.0002807153)
(0.9528963 -0.4888418 0 -0.09951808 0 -0.0002367775)
(0.949843 -0.4887254 0 -0.09945476 0 -0.0002365298)
(0.7889176 -0.4344486 0 -0.09808077 0 -0.0001920588)
(0.7898494 -0.4343461 0 -0.09810808 0 -0.0001922068)
(0.6276323 -0.3885212 0 -0.09510197 0 -0.0001485338)
(0.627662 -0.3886034 0 -0.09510989 0 -0.0001484068)
(0.4778797 -0.3512768 0 -0.09172232 0 -0.000107662)
(0.4779163 -0.3512768 0 -0.09171322 0 -0.0001076134)
(0.3403275 -0.3216089 0 -0.08912662 0 -7.020777e-05)
(0.3403669 -0.3216089 0 -0.0891247 0 -7.015783e-05)
(0.2232856 -0.2993263 0 -0.08880981 0 -3.773041e-05)
(0.2233262 -0.2993263 0 -0.08880186 0 -3.779288e-05)
(0.1271993 -0.2831923 0 -0.09191763 0 -1.04075e-05)
(0.1272412 -0.2831923 0 -0.09193283 0 -1.01633e-05)
(0.0567903 -0.2713716 0 -0.09959806 0 1.153019e-05)
(0.05683114 -0.2713716 0 -0.09957924 0 1.15967e-05)
(0.01080892 -0.2625359 0 -0.112546 0 2.81564e-05)
(0.01084871 -0.2625359 0 -0.1125477 0 2.812275e-05)
(-0.01426031 -0.2542208 0 -0.1307831 0 4.00228e-05)
(-0.01422284 -0.2542208 0 -0.1307763 0 4.013171e-05)
(-0.0211107 -0.2444342 0 -0.1534952 0 4.835597e-05)
(-0.02107645 -0.2444342 0 -0.1535044 0 4.842401e-05)
(-0.01730028 -0.2315856 0 -0.1789539 0 5.447086e-05)
(-0.01726977 -0.2315856 0 -0.1789425 0 5.456912e-05)
(-0.01001859 -0.214693 0 -0.2046464 0 5.974296e-05)
(-0.009993109 -0.2147219 0 -0.2046389 0 5.976255e-05)
(-0.007107783 -0.1937901 0 -0.2275406 0 6.530901e-05)
(-0.007084435 -0.1937205 0 -0.2275428 0 6.533096e-05)
(-0.01392535 -0.1700987 0 -0.2451394 0 7.205983e-05)
(-0.01390887 -0.1701236 0 -0.2451301 0 7.216914e-05)
(-0.03306442 -0.1455444 0 -0.2554487 0 8.028039e-05)
(-0.0330518 -0.1455444 0 -0.2554461 0 8.034359e-05)
(-0.06548395 -0.1223497 0 -0.2579066 0 9.006894e-05)
(-0.06545657 -0.1223497 0 -0.2579097 0 8.999901e-05)
(-0.1089527 -0.1022637 0 -0.2531258 0 0.0001007761)
(-0.1089828 -0.1022637 0 -0.25312 0 0.0001008846)
(-0.1604083 -0.08660779 0 -0.2427773 0 0.0001122973)
(-0.1604073 -0.08660779 0 -0.2427787 0 0.000112267)
(-0.2140342 -0.07566633 0 -0.2289896 0 0.0001235856)
(-0.2140675 -0.07566346 0 -0.2289881 0 0.0001235715)
(-0.2686244 -0.06946291 0 -0.2144731 0 0.0001352845)
(-0.2686742 -0.06946624 0 -0.2144735 0 0.0001352871)
(-0.3013089 -0.06389563 0 -0.198036 0 0.0001394382)
(-0.3013387 -0.06389745 0 -0.1980374 0 0.0001394985)
(-0.07963911 -0.02315811 0 -0.1471905 0 5.663831e-05)
(-0.079747 -0.02317337 0 -0.1472025 0 5.667479e-05)
(1.456961 0.2035328 0 0.08586334 0 -0.0004469893)
(1.45667 0.2034975 0 0.08583584 0 -0.0004468011)
(4.165185 0.6089076 0 0.5221869 0 -0.001291389)
(4.16491 0.6088738 0 0.5221536 0 -0.001291234)
(3.252942 0.4855007 0 0.4571539 0 -0.001016328)
(3.252913 0.4854967 0 0.4571498 0 -0.001016258)
(1.082101 0.1625976 0 0.1587724 0 -0.0003480093)
(1.082111 0.1625991 0 0.1587735 0 -0.0003480544)
(0.2908393 0.04382081 0 0.04419257 0 -9.521964e-05)
(0.2908409 0.04382116 0 0.04419297 0 -9.538943e-05)
(0.08460052 0.01224922 0 0.01144233 0 -2.734886e-05)
(0.0846003 0.01224917 0 0.01144203 0 -2.76973e-05)
(0.05101714 0.007681258 0 0.01051864 0 -1.721891e-05)
(0.05101792 0.00768128 0 0.01051868 0 -1.704857e-05)
(0.005968086 0.0004487924 0 -0.003439245 0 -1.140933e-06)
(0.005967904 0.0004487972 0 -0.003438734 0 -4.768016e-07)
(0.02610982 0.002868203 0 0.008951725 0 -9.453121e-06)
(0.02610972 0.002868177 0 0.008951469 0 -9.843275e-06)
(0.004114413 -0.0002743293 0 -0.001271564 0 -1.007937e-06)
(0.00411456 -0.0002743223 0 -0.001271235 0 -7.018194e-07)
)
;

boundaryField
{
    leftandright
    {
        type            cyclic;
        value           nonuniform List<symmTensor> 
150
(
(-17.1057 0.7758917 0 0.02900867 0 0.001523759)
(-10.26651 0.9588882 0 0.03404015 0 0.001647772)
(-6.174048 1.135571 0 0.04206849 0 0.0003946852)
(-5.19721 1.360475 0 0.0553391 0 -0.0004854548)
(-1.897146 1.679898 0 0.07304195 0 -0.001797968)
(7.508524 2.106472 0 0.09346073 0 -0.003689537)
(23.08336 2.619504 0 0.1147347 0 -0.006046211)
(41.42042 3.184996 0 0.1367244 0 -0.008426231)
(54.90848 3.763636 0 0.1626771 0 -0.01005016)
(50.21826 4.255235 0 0.2001515 0 -0.01012978)
(29.93642 4.618442 0 0.2625568 0 -0.008868203)
(20.47805 4.870701 0 0.3156896 0 -0.007727464)
(28.38098 4.95178 0 0.3347775 0 -0.007345899)
(31.95708 4.837071 0 0.3630452 0 -0.006642089)
(21.36233 4.496055 0 0.3968226 0 -0.004646769)
(5.981532 4.03861 0 0.4329459 0 -0.00168094)
(-8.895268 3.511643 0 0.4684046 0 0.0015649)
(-20.69505 2.937436 0 0.5003056 0 0.004485255)
(-28.57306 2.33762 0 0.5263432 0 0.006684479)
(-32.55146 1.737555 0 0.5448294 0 0.008004803)
(-33.29574 1.162247 0 0.5546913 0 0.008485138)
(-31.59151 0.6331309 0 0.5553762 0 0.008272011)
(-28.36457 0.1637079 0 0.5467925 0 0.007573042)
(-24.34825 -0.2382649 0 0.5291742 0 0.006591673)
(-20.13433 -0.5713597 0 0.5030292 0 0.005496095)
(-16.06149 -0.8372932 0 0.469218 0 0.004409855)
(-12.39132 -1.040087 0 0.4288073 0 0.003407156)
(-9.21165 -1.185487 0 0.3831316 0 0.002529919)
(-6.537842 -1.279523 0 0.3336776 0 0.001790831)
(-4.365835 -1.328969 0 0.2819183 0 0.001188657)
(-2.641589 -1.340532 0 0.2296273 0 0.0007125826)
(-1.308559 -1.320703 0 0.1781771 0 0.0003461566)
(-0.3072664 -1.276205 0 0.1289642 0 7.441974e-05)
(0.4110646 -1.212721 0 0.08321119 0 -0.000120013)
(0.9064707 -1.13644 0 0.04180045 0 -0.0002510129)
(1.224349 -1.050919 0 0.005450169 0 -0.0003322869)
(1.396577 -0.9616555 0 -0.02537122 0 -0.000374761)
(1.46055 -0.871871 0 -0.05055177 0 -0.0003878938)
(1.444026 -0.7834467 0 -0.07004418 0 -0.0003791357)
(1.367907 -0.6998617 0 -0.08418159 0 -0.000355338)
(1.252808 -0.6221137 0 -0.0933804 0 -0.0003211686)
(1.108868 -0.5514505 0 -0.09820411 0 -0.0002806695)
(0.9513696 -0.4887836 0 -0.09948642 0 -0.0002366537)
(0.7893835 -0.4343973 0 -0.09809442 0 -0.0001921328)
(0.6276471 -0.3885623 0 -0.09510593 0 -0.0001484703)
(0.477898 -0.3512768 0 -0.09171777 0 -0.0001076377)
(0.3403472 -0.3216089 0 -0.08912566 0 -7.01828e-05)
(0.2233059 -0.2993263 0 -0.08880583 0 -3.776165e-05)
(0.1272202 -0.2831923 0 -0.09192523 0 -1.02854e-05)
(0.05681072 -0.2713716 0 -0.09958865 0 1.156344e-05)
(0.01082882 -0.2625359 0 -0.1125468 0 2.813958e-05)
(-0.01424158 -0.2542208 0 -0.1307797 0 4.007725e-05)
(-0.02109357 -0.2444342 0 -0.1534998 0 4.838999e-05)
(-0.01728502 -0.2315856 0 -0.1789482 0 5.451999e-05)
(-0.01000585 -0.2147074 0 -0.2046427 0 5.975275e-05)
(-0.007096109 -0.1937553 0 -0.2275417 0 6.531999e-05)
(-0.01391711 -0.1701112 0 -0.2451348 0 7.211449e-05)
(-0.03305811 -0.1455444 0 -0.2554474 0 8.031199e-05)
(-0.06547026 -0.1223497 0 -0.2579082 0 9.003398e-05)
(-0.1089678 -0.1022637 0 -0.2531229 0 0.0001008304)
(-0.1604078 -0.08660779 0 -0.242778 0 0.0001122821)
(-0.2140508 -0.0756649 0 -0.2289889 0 0.0001235786)
(-0.2686493 -0.06946458 0 -0.2144733 0 0.0001352858)
(-0.3013238 -0.06389654 0 -0.1980367 0 0.0001394683)
(-0.07969306 -0.02316574 0 -0.1471965 0 5.665655e-05)
(1.456816 0.2035151 0 0.08584959 0 -0.0004468952)
(4.165047 0.6088907 0 0.5221702 0 -0.001291311)
(3.252927 0.4854987 0 0.4571519 0 -0.001016293)
(1.082106 0.1625984 0 0.158773 0 -0.0003480318)
(0.2908401 0.04382099 0 0.04419277 0 -9.530454e-05)
(0.08460041 0.01224919 0 0.01144218 0 -2.752308e-05)
(0.05101753 0.007681269 0 0.01051866 0 -1.713374e-05)
(0.005967995 0.0004487948 0 -0.003438989 0 -8.088674e-07)
(0.02610977 0.00286819 0 0.008951597 0 -9.648198e-06)
(0.004114487 -0.0002743258 0 -0.0012714 0 -8.548784e-07)
(-17.1057 0.7758917 0 0.02900867 0 0.001523759)
(-10.26651 0.9588882 0 0.03404015 0 0.001647772)
(-6.174048 1.135571 0 0.04206849 0 0.0003946852)
(-5.19721 1.360475 0 0.0553391 0 -0.0004854548)
(-1.897146 1.679898 0 0.07304195 0 -0.001797968)
(7.508524 2.106472 0 0.09346073 0 -0.003689537)
(23.08336 2.619504 0 0.1147347 0 -0.006046211)
(41.42042 3.184996 0 0.1367244 0 -0.008426231)
(54.90848 3.763636 0 0.1626771 0 -0.01005016)
(50.21826 4.255235 0 0.2001515 0 -0.01012978)
(29.93642 4.618442 0 0.2625568 0 -0.008868203)
(20.47805 4.870701 0 0.3156896 0 -0.007727464)
(28.38098 4.95178 0 0.3347775 0 -0.007345899)
(31.95708 4.837071 0 0.3630452 0 -0.006642089)
(21.36233 4.496055 0 0.3968226 0 -0.004646769)
(5.981532 4.03861 0 0.4329459 0 -0.00168094)
(-8.895268 3.511643 0 0.4684046 0 0.0015649)
(-20.69505 2.937436 0 0.5003056 0 0.004485255)
(-28.57306 2.33762 0 0.5263432 0 0.006684479)
(-32.55146 1.737555 0 0.5448294 0 0.008004803)
(-33.29574 1.162247 0 0.5546913 0 0.008485138)
(-31.59151 0.6331309 0 0.5553762 0 0.008272011)
(-28.36457 0.1637079 0 0.5467925 0 0.007573042)
(-24.34825 -0.2382649 0 0.5291742 0 0.006591673)
(-20.13433 -0.5713597 0 0.5030292 0 0.005496095)
(-16.06149 -0.8372932 0 0.469218 0 0.004409855)
(-12.39132 -1.040087 0 0.4288073 0 0.003407156)
(-9.21165 -1.185487 0 0.3831316 0 0.002529919)
(-6.537842 -1.279523 0 0.3336776 0 0.001790831)
(-4.365835 -1.328969 0 0.2819183 0 0.001188657)
(-2.641589 -1.340532 0 0.2296273 0 0.0007125826)
(-1.308559 -1.320703 0 0.1781771 0 0.0003461566)
(-0.3072664 -1.276205 0 0.1289642 0 7.441974e-05)
(0.4110646 -1.212721 0 0.08321119 0 -0.000120013)
(0.9064707 -1.13644 0 0.04180045 0 -0.0002510129)
(1.224349 -1.050919 0 0.005450169 0 -0.0003322869)
(1.396577 -0.9616555 0 -0.02537122 0 -0.000374761)
(1.46055 -0.871871 0 -0.05055177 0 -0.0003878938)
(1.444026 -0.7834467 0 -0.07004418 0 -0.0003791357)
(1.367907 -0.6998617 0 -0.08418159 0 -0.000355338)
(1.252808 -0.6221137 0 -0.0933804 0 -0.0003211686)
(1.108868 -0.5514505 0 -0.09820411 0 -0.0002806695)
(0.9513696 -0.4887836 0 -0.09948642 0 -0.0002366537)
(0.7893835 -0.4343973 0 -0.09809442 0 -0.0001921328)
(0.6276471 -0.3885623 0 -0.09510593 0 -0.0001484703)
(0.477898 -0.3512768 0 -0.09171777 0 -0.0001076377)
(0.3403472 -0.3216089 0 -0.08912566 0 -7.01828e-05)
(0.2233059 -0.2993263 0 -0.08880583 0 -3.776165e-05)
(0.1272202 -0.2831923 0 -0.09192523 0 -1.02854e-05)
(0.05681072 -0.2713716 0 -0.09958865 0 1.156344e-05)
(0.01082882 -0.2625359 0 -0.1125468 0 2.813958e-05)
(-0.01424158 -0.2542208 0 -0.1307797 0 4.007725e-05)
(-0.02109357 -0.2444342 0 -0.1534998 0 4.838999e-05)
(-0.01728502 -0.2315856 0 -0.1789482 0 5.451999e-05)
(-0.01000585 -0.2147074 0 -0.2046427 0 5.975275e-05)
(-0.007096109 -0.1937553 0 -0.2275417 0 6.531999e-05)
(-0.01391711 -0.1701112 0 -0.2451348 0 7.211449e-05)
(-0.03305811 -0.1455444 0 -0.2554474 0 8.031199e-05)
(-0.06547026 -0.1223497 0 -0.2579082 0 9.003398e-05)
(-0.1089678 -0.1022637 0 -0.2531229 0 0.0001008304)
(-0.1604078 -0.08660779 0 -0.242778 0 0.0001122821)
(-0.2140508 -0.0756649 0 -0.2289889 0 0.0001235786)
(-0.2686493 -0.06946458 0 -0.2144733 0 0.0001352858)
(-0.3013238 -0.06389654 0 -0.1980367 0 0.0001394683)
(-0.07969306 -0.02316574 0 -0.1471965 0 5.665655e-05)
(1.456816 0.2035151 0 0.08584959 0 -0.0004468952)
(4.165047 0.6088907 0 0.5221702 0 -0.001291311)
(3.252927 0.4854987 0 0.4571519 0 -0.001016293)
(1.082106 0.1625984 0 0.158773 0 -0.0003480318)
(0.2908401 0.04382099 0 0.04419277 0 -9.530454e-05)
(0.08460041 0.01224919 0 0.01144218 0 -2.752308e-05)
(0.05101753 0.007681269 0 0.01051866 0 -1.713374e-05)
(0.005967995 0.0004487948 0 -0.003438989 0 -8.088674e-07)
(0.02610977 0.00286819 0 0.008951597 0 -9.648198e-06)
(0.004114487 -0.0002743258 0 -0.0012714 0 -8.548784e-07)
)
;
    }
    wall
    {
        type            calculated;
        value           nonuniform List<symmTensor> 2((-15.92912 0.7758917 0 0.0284732 0 0.001320404) (-18.28228 0.7758917 0 0.02954415 0 0.001727114));
    }
    frontAndBack
    {
        type            empty;
    }
    middle
    {
        type            symmetryPlane;
        value           nonuniform List<symmTensor> 2((0.004114413 0 0 -0.001271564 0 -1.007937e-06) (0.00411456 0 0 -0.001271235 0 -7.018194e-07));
    }
}


// ************************************************************************* //
