/*--------------------------------*- C++ -*----------------------------------*\
| =========                 |                                                 |
| \\      /  F ield         | foam-extend: Open Source CFD                    |
|  \\    /   O peration     | Version:     4.0                                |
|   \\  /    A nd           | Web:         http://www.foam-extend.org         |
|    \\/     M anipulation  |                                                 |
\*---------------------------------------------------------------------------*/
FoamFile
{
    version     2.0;
    format      ascii;
    class       volScalarField;
    location    "100";
    object      epsilonV;
}
// * * * * * * * * * * * * * * * * * * * * * * * * * * * * * * * * * * * * * //

dimensions      [0 2 -3 0 0 0 0];

internalField   nonuniform List<scalar> 
150
(
2.399434e-06
2.399514e-06
0.0001241318
0.0001241331
0.0007946599
0.0007946616
0.002753269
0.00275327
0.006931905
0.006931905
0.01425896
0.01425895
0.02544442
0.02544439
0.0408639
0.04086388
0.06062529
0.06062526
0.0847777
0.08477767
0.1133277
0.1133276
0.1550763
0.1550762
0.2152077
0.2152077
0.2882829
0.2882828
0.3767637
0.3767636
0.4829701
0.4829702
0.6089494
0.608949
0.7561235
0.756123
0.924958
0.9249574
1.114709
1.114708
1.323324
1.323323
1.547514
1.547513
1.783015
1.783013
2.024937
2.024935
2.26818
2.268178
2.507798
2.507795
2.739311
2.73931
2.958905
2.958904
3.163535
3.163534
3.350957
3.350953
3.519668
3.519667
3.668835
3.668834
3.798177
3.798176
3.907849
3.907848
3.998327
3.998326
4.070307
4.070306
4.124635
4.124634
4.162219
4.162216
4.183979
4.183978
4.190833
4.190829
4.183632
4.183631
4.163182
4.163179
4.130195
4.130193
4.085307
4.085304
4.029059
4.029058
3.961889
3.961888
3.884123
3.884122
3.795969
3.795968
3.697493
3.697492
3.588602
3.588601
3.469057
3.469056
3.338445
3.338444
3.19622
3.19622
3.04176
3.041759
2.874447
2.874447
2.693812
2.693809
2.499675
2.499674
2.292291
2.292291
2.072454
2.072454
1.841527
1.841527
1.60143
1.60143
1.354549
1.354549
1.103651
1.103651
0.8517115
0.8517121
0.6021375
0.602139
0.3628062
0.3628084
0.1646158
0.1646176
0.05830077
0.05830135
0.02242204
0.02242213
0.01058381
0.01058382
0.005635867
0.00563587
0.002784883
0.002784883
0.001534334
0.001534334
0.0002484597
0.0002484599
0.0001557722
0.000155772
)
;

boundaryField
{
    leftandright
    {
        type            cyclic;
        value           nonuniform List<scalar> 
150
(
2.399474e-06
0.0001241325
0.0007946608
0.00275327
0.006931905
0.01425895
0.0254444
0.04086389
0.06062528
0.08477769
0.1133276
0.1550763
0.2152077
0.2882828
0.3767636
0.4829701
0.6089492
0.7561232
0.9249577
1.114709
1.323323
1.547514
1.783014
2.024936
2.268179
2.507797
2.73931
2.958904
3.163535
3.350955
3.519667
3.668835
3.798177
3.907849
3.998327
4.070306
4.124634
4.162218
4.183978
4.190831
4.183632
4.16318
4.130194
4.085305
4.029058
3.961888
3.884123
3.795968
3.697492
3.588602
3.469056
3.338444
3.19622
3.041759
2.874447
2.69381
2.499674
2.292291
2.072454
1.841527
1.60143
1.354549
1.103651
0.8517118
0.6021383
0.3628073
0.1646167
0.05830106
0.02242209
0.01058382
0.005635869
0.002784883
0.001534334
0.0002484598
0.0001557721
2.399474e-06
0.0001241325
0.0007946608
0.00275327
0.006931905
0.01425895
0.0254444
0.04086389
0.06062528
0.08477769
0.1133276
0.1550763
0.2152077
0.2882828
0.3767636
0.4829701
0.6089492
0.7561232
0.9249577
1.114709
1.323323
1.547514
1.783014
2.024936
2.268179
2.507797
2.73931
2.958904
3.163535
3.350955
3.519667
3.668835
3.798177
3.907849
3.998327
4.070306
4.124634
4.162218
4.183978
4.190831
4.183632
4.16318
4.130194
4.085305
4.029058
3.961888
3.884123
3.795968
3.697492
3.588602
3.469056
3.338444
3.19622
3.041759
2.874447
2.69381
2.499674
2.292291
2.072454
1.841527
1.60143
1.354549
1.103651
0.8517118
0.6021383
0.3628073
0.1646167
0.05830106
0.02242209
0.01058382
0.005635869
0.002784883
0.001534334
0.0002484598
0.0001557721
)
;
    }
    wall
    {
        type            calculated;
        value           nonuniform List<scalar> 2(9.499846e-10 9.500158e-10);
    }
    frontAndBack
    {
        type            empty;
    }
    middle
    {
        type            symmetryPlane;
        value           nonuniform List<scalar> 2(0.0001557722 0.000155772);
    }
}


// ************************************************************************* //
