/*--------------------------------*- C++ -*----------------------------------*\
| =========                 |                                                 |
| \\      /  F ield         | foam-extend: Open Source CFD                    |
|  \\    /   O peration     | Version:     4.0                                |
|   \\  /    A nd           | Web:         http://www.foam-extend.org         |
|    \\/     M anipulation  |                                                 |
\*---------------------------------------------------------------------------*/
FoamFile
{
    version     2.0;
    format      ascii;
    class       volScalarField;
    location    "100";
    object      epsilonPlus;
}
// * * * * * * * * * * * * * * * * * * * * * * * * * * * * * * * * * * * * * //

dimensions      [0 4 -4 0 0 0 0];

internalField   nonuniform List<scalar> 
150
(
0.09633775
0.09633776
0.0869395
0.08693952
0.07955521
0.07955522
0.07418178
0.07418179
0.07084023
0.07084024
0.06955634
0.06955635
0.07033716
0.07033717
0.07314939
0.0731494
0.07790637
0.07790638
0.08446891
0.08446892
0.09266187
0.09266189
0.1022988
0.1022988
0.1128143
0.1128143
0.1233265
0.1233265
0.1330826
0.1330826
0.1414533
0.1414533
0.1479625
0.1479625
0.1523053
0.1523053
0.154351
0.154351
0.1541295
0.1541295
0.1518043
0.1518043
0.1476376
0.1476376
0.1419515
0.1419515
0.135093
0.135093
0.127404
0.127404
0.1191996
0.1191996
0.1107543
0.1107543
0.1022953
0.1022953
0.09400166
0.09400166
0.08600705
0.08600705
0.07840504
0.07840504
0.07125544
0.07125544
0.06459081
0.06459082
0.05842261
0.05842261
0.05274658
0.05274658
0.04754733
0.04754733
0.04280197
0.04280197
0.03848306
0.03848306
0.03456077
0.03456077
0.03100454
0.03100454
0.02778418
0.02778418
0.02487075
0.02487075
0.02223704
0.02223704
0.01985791
0.01985791
0.01771046
0.01771046
0.01577407
0.01577407
0.01403038
0.01403038
0.01246316
0.01246316
0.01105814
0.01105814
0.009802731
0.009802731
0.008685774
0.008685774
0.007697155
0.007697154
0.006827463
0.006827463
0.006067657
0.006067656
0.00540879
0.00540879
0.004841837
0.004841837
0.004357629
0.004357629
0.00394689
0.003946889
0.003600346
0.003600346
0.003308854
0.003308854
0.003063504
0.003063503
0.002855676
0.002855676
0.002677032
0.002677032
0.002519445
0.002519445
0.002374889
0.002374889
0.002235386
0.002235386
0.002093513
0.002093513
0.001944843
0.001944843
0.001791378
0.001791378
0.001639859
0.001639859
0.001498053
0.001498053
0.001373149
0.001373149
0.001271407
0.001271407
0.001198343
0.001198343
0.00115907
0.00115907
)
;

boundaryField
{
    leftandright
    {
        type            cyclic;
        value           nonuniform List<scalar> 
150
(
0.09633775
0.08693951
0.07955521
0.07418179
0.07084024
0.06955634
0.07033717
0.07314939
0.07790637
0.08446891
0.09266188
0.1022988
0.1128143
0.1233265
0.1330826
0.1414533
0.1479625
0.1523053
0.154351
0.1541295
0.1518043
0.1476376
0.1419515
0.135093
0.127404
0.1191996
0.1107543
0.1022953
0.09400166
0.08600705
0.07840504
0.07125544
0.06459081
0.05842261
0.05274658
0.04754733
0.04280197
0.03848306
0.03456077
0.03100454
0.02778418
0.02487075
0.02223704
0.01985791
0.01771046
0.01577407
0.01403038
0.01246316
0.01105814
0.009802731
0.008685774
0.007697155
0.006827463
0.006067657
0.00540879
0.004841837
0.004357629
0.00394689
0.003600346
0.003308854
0.003063503
0.002855676
0.002677032
0.002519445
0.002374889
0.002235386
0.002093513
0.001944843
0.001791378
0.001639859
0.001498053
0.001373149
0.001271407
0.001198343
0.00115907
0.09633775
0.08693951
0.07955521
0.07418179
0.07084024
0.06955634
0.07033717
0.07314939
0.07790637
0.08446891
0.09266188
0.1022988
0.1128143
0.1233265
0.1330826
0.1414533
0.1479625
0.1523053
0.154351
0.1541295
0.1518043
0.1476376
0.1419515
0.135093
0.127404
0.1191996
0.1107543
0.1022953
0.09400166
0.08600705
0.07840504
0.07125544
0.06459081
0.05842261
0.05274658
0.04754733
0.04280197
0.03848306
0.03456077
0.03100454
0.02778418
0.02487075
0.02223704
0.01985791
0.01771046
0.01577407
0.01403038
0.01246316
0.01105814
0.009802731
0.008685774
0.007697155
0.006827463
0.006067657
0.00540879
0.004841837
0.004357629
0.00394689
0.003600346
0.003308854
0.003063503
0.002855676
0.002677032
0.002519445
0.002374889
0.002235386
0.002093513
0.001944843
0.001791378
0.001639859
0.001498053
0.001373149
0.001271407
0.001198343
0.00115907
)
;
    }
    wall
    {
        type            calculated;
        value           nonuniform List<scalar> 2(0.102206 0.102206);
    }
    frontAndBack
    {
        type            empty;
    }
    middle
    {
        type            symmetryPlane;
        value           nonuniform List<scalar> 2(0.00115907 0.00115907);
    }
}


// ************************************************************************* //
