/*--------------------------------*- C++ -*----------------------------------*\
| =========                 |                                                 |
| \\      /  F ield         | foam-extend: Open Source CFD                    |
|  \\    /   O peration     | Version:     4.0                                |
|   \\  /    A nd           | Web:         http://www.foam-extend.org         |
|    \\/     M anipulation  |                                                 |
\*---------------------------------------------------------------------------*/
FoamFile
{
    version     2.0;
    format      ascii;
    class       volScalarField;
    location    "100";
    object      epsilon;
}
// * * * * * * * * * * * * * * * * * * * * * * * * * * * * * * * * * * * * * //

dimensions      [0 2 -3 0 0 0 0];

internalField   nonuniform List<scalar> 
150
(
38.05341
38.05342
34.3411
34.34111
31.42431
31.42431
29.3018
29.30181
27.98189
27.9819
27.47475
27.47476
27.78318
27.78318
28.89401
28.89401
30.77302
30.77302
33.36522
33.36522
36.60144
36.60145
40.40802
40.40803
44.56166
44.56167
48.71397
48.71397
52.56761
52.56761
55.87404
55.87405
58.44518
58.44518
60.16059
60.16059
60.96864
60.96864
60.88113
60.88114
59.96271
59.96271
58.31684
58.31684
56.07083
56.07083
53.36172
53.36173
50.32458
50.32458
47.08384
47.08384
43.74794
43.74794
40.40664
40.40664
37.13065
37.13066
33.97278
33.97279
30.96999
30.96999
28.1459
28.1459
25.51337
25.51337
23.07693
23.07693
20.8349
20.8349
18.78119
18.78119
16.90678
16.90678
15.20081
15.20081
13.65151
13.65151
12.24679
12.24679
10.97475
10.97475
9.823945
9.823945
8.78363
8.78363
7.843874
7.843874
6.995631
6.995631
6.230757
6.230757
5.542
5.542
4.922949
4.922949
4.367964
4.367964
3.872079
3.872079
3.430881
3.430881
3.040376
3.040376
2.696848
2.696848
2.396724
2.396724
2.136472
2.136472
1.912526
1.912526
1.721263
1.721263
1.559021
1.559021
1.422137
1.422137
1.306997
1.306997
1.210084
1.210084
1.127992
1.127992
1.057428
1.057428
0.9951808
0.9951808
0.9380811
0.9380811
0.8829773
0.8829773
0.8269375
0.8269374
0.768213
0.768213
0.7075942
0.7075942
0.6477442
0.6477442
0.5917309
0.5917309
0.5423938
0.5423938
0.5022059
0.5022059
0.4733455
0.4733455
0.4578325
0.4578325
)
;

boundaryField
{
    leftandright
    {
        type            cyclic;
        value           nonuniform List<scalar> 
150
(
38.05341
34.34111
31.42431
29.30181
27.98189
27.47476
27.78318
28.89401
30.77302
33.36522
36.60144
40.40803
44.56166
48.71397
52.56761
55.87405
58.44518
60.16059
60.96864
60.88114
59.96271
58.31684
56.07083
53.36173
50.32458
47.08384
43.74794
40.40664
37.13065
33.97278
30.96999
28.1459
25.51337
23.07693
20.8349
18.78119
16.90678
15.20081
13.65151
12.24679
10.97475
9.823945
8.78363
7.843874
6.995631
6.230757
5.542
4.922949
4.367964
3.872079
3.430881
3.040376
2.696848
2.396724
2.136472
1.912526
1.721263
1.559021
1.422137
1.306997
1.210084
1.127992
1.057428
0.9951808
0.9380811
0.8829773
0.8269375
0.768213
0.7075942
0.6477442
0.5917309
0.5423938
0.5022059
0.4733455
0.4578325
38.05341
34.34111
31.42431
29.30181
27.98189
27.47476
27.78318
28.89401
30.77302
33.36522
36.60144
40.40803
44.56166
48.71397
52.56761
55.87405
58.44518
60.16059
60.96864
60.88114
59.96271
58.31684
56.07083
53.36173
50.32458
47.08384
43.74794
40.40664
37.13065
33.97278
30.96999
28.1459
25.51337
23.07693
20.8349
18.78119
16.90678
15.20081
13.65151
12.24679
10.97475
9.823945
8.78363
7.843874
6.995631
6.230757
5.542
4.922949
4.367964
3.872079
3.430881
3.040376
2.696848
2.396724
2.136472
1.912526
1.721263
1.559021
1.422137
1.306997
1.210084
1.127992
1.057428
0.9951808
0.9380811
0.8829773
0.8269375
0.768213
0.7075942
0.6477442
0.5917309
0.5423938
0.5022059
0.4733455
0.4578325
)
;
    }
    wall
    {
        type            groovyBC;
        refValue        nonuniform List<scalar> 2(40.37137 40.37138);
        refGradient     uniform 0;
        valueFraction   uniform 1;
        value           nonuniform List<scalar> 2(40.37137 40.37138);
        valueExpression "2*nu*internalField(k)/sqr(mag(delta()))";
        gradientExpression "0";
        fractionExpression "1";
        evaluateDuringConstruction 0;
        variables       "";
        timelines       (
);
        lookuptables    (
);
    }
    frontAndBack
    {
        type            empty;
    }
    middle
    {
        type            symmetryPlane;
        value           nonuniform List<scalar> 2(0.4578325 0.4578325);
    }
}


// ************************************************************************* //
