/*--------------------------------*- C++ -*----------------------------------*\
| =========                 |                                                 |
| \\      /  F ield         | foam-extend: Open Source CFD                    |
|  \\    /   O peration     | Version:     4.0                                |
|   \\  /    A nd           | Web:         http://www.foam-extend.org         |
|    \\/     M anipulation  |                                                 |
\*---------------------------------------------------------------------------*/
FoamFile
{
    version     2.0;
    format      ascii;
    class       volScalarField;
    location    "100";
    object      EtauP;
}
// * * * * * * * * * * * * * * * * * * * * * * * * * * * * * * * * * * * * * //

dimensions      [0 2 -4 0 0 0 0];

internalField   nonuniform List<scalar> 
150
(
0.000353146
0.0003531578
0.009920272
0.00992038
0.04710996
0.04711006
0.1362211
0.1362212
0.3049425
0.3049425
0.5819049
0.5819048
0.9947741
0.9947731
1.569851
1.56985
2.333904
2.333903
3.31793
3.317928
4.553415
4.553411
6.05352
6.053515
7.819884
7.819883
9.876782
9.87678
12.25598
12.25598
14.96526
14.96527
17.98921
17.9892
21.28359
21.28357
24.77312
24.7731
28.35394
28.35392
31.90166
31.90163
35.28342
35.28339
38.37208
38.37205
41.05876
41.05872
43.26206
43.26202
44.93245
44.93241
46.0524
46.05238
46.63269
46.63266
46.70661
46.70659
46.32363
46.32358
45.5427
45.54269
44.42697
44.42695
43.03921
43.03919
41.43876
41.43875
39.67946
39.67945
37.80855
37.80854
35.86649
35.86649
33.88691
33.88688
31.8971
31.89709
29.91895
29.91892
27.96934
27.96933
26.06122
26.0612
24.20414
24.20413
22.40503
22.40501
20.66877
20.66877
18.99878
18.99877
17.39739
17.39738
15.86633
15.86632
14.40698
14.40697
13.02054
13.02054
11.70828
11.70828
10.47139
10.47139
9.310971
9.310968
8.227799
8.227797
7.222096
7.222095
6.293263
6.293257
5.43969
5.439689
4.65865
4.658649
3.94635
3.946349
3.298111
3.298111
2.708718
2.708718
2.17282
2.17282
1.685422
1.685423
1.242254
1.242254
0.8406122
0.8406142
0.4851354
0.4851384
0.2105978
0.2106002
0.07115725
0.07115796
0.02602204
0.02602214
0.0116507
0.01165071
0.005880732
0.005880735
0.002760251
0.00276025
0.001452943
0.001452943
0.0002271266
0.0002271267
0.000139585
0.0001395848
)
;

boundaryField
{
    leftandright
    {
        type            cyclic;
        value           nonuniform List<scalar> 
150
(
0.0003531519
0.009920326
0.04711001
0.1362212
0.3049425
0.5819048
0.9947736
1.569851
2.333903
3.317929
4.553413
6.053517
7.819883
9.876781
12.25598
14.96527
17.9892
21.28358
24.77311
28.35393
31.90164
35.28341
38.37207
41.05874
43.26204
44.93243
46.05239
46.63267
46.7066
46.3236
45.54269
44.42696
43.0392
41.43875
39.67946
37.80855
35.86649
33.8869
31.89709
29.91893
27.96933
26.06121
24.20413
22.40502
20.66877
18.99877
17.39738
15.86633
14.40697
13.02054
11.70828
10.47139
9.31097
8.227798
7.222095
6.29326
5.43969
4.65865
3.94635
3.298111
2.708718
2.17282
1.685423
1.242254
0.8406132
0.4851369
0.210599
0.07115761
0.02602209
0.01165071
0.005880734
0.00276025
0.001452943
0.0002271267
0.0001395849
0.0003531519
0.009920326
0.04711001
0.1362212
0.3049425
0.5819048
0.9947736
1.569851
2.333903
3.317929
4.553413
6.053517
7.819883
9.876781
12.25598
14.96527
17.9892
21.28358
24.77311
28.35393
31.90164
35.28341
38.37207
41.05874
43.26204
44.93243
46.05239
46.63267
46.7066
46.3236
45.54269
44.42696
43.0392
41.43875
39.67946
37.80855
35.86649
33.8869
31.89709
29.91893
27.96933
26.06121
24.20413
22.40502
20.66877
18.99877
17.39738
15.86633
14.40697
13.02054
11.70828
10.47139
9.31097
8.227798
7.222095
6.29326
5.43969
4.65865
3.94635
3.298111
2.708718
2.17282
1.685423
1.242254
0.8406132
0.4851369
0.210599
0.07115761
0.02602209
0.01165071
0.005880734
0.00276025
0.001452943
0.0002271267
0.0001395849
)
;
    }
    wall
    {
        type            calculated;
        value           nonuniform List<scalar> 2(2.92513e-08 2.925227e-08);
    }
    frontAndBack
    {
        type            empty;
    }
    middle
    {
        type            symmetryPlane;
        value           nonuniform List<scalar> 2(0.000139585 0.0001395848);
    }
}


// ************************************************************************* //
