/*--------------------------------*- C++ -*----------------------------------*\
| =========                 |                                                 |
| \\      /  F ield         | foam-extend: Open Source CFD                    |
|  \\    /   O peration     | Version:     4.0                                |
|   \\  /    A nd           | Web:         http://www.foam-extend.org         |
|    \\/     M anipulation  |                                                 |
\*---------------------------------------------------------------------------*/
FoamFile
{
    version     2.0;
    format      ascii;
    class       volScalarField;
    location    "100";
    object      eVyy;
}
// * * * * * * * * * * * * * * * * * * * * * * * * * * * * * * * * * * * * * //

dimensions      [0 2 -3 0 0 0 0];

internalField   nonuniform List<scalar> 
150
(
1.838351e-10
1.838413e-10
4.337935e-08
4.337983e-08
6.379488e-07
6.379502e-07
3.844176e-06
3.844179e-06
1.449852e-05
1.449852e-05
4.072202e-05
4.072201e-05
9.320794e-05
9.320786e-05
0.000183686
0.0001836859
0.0003237451
0.000323745
0.0005249736
0.0005249734
0.0007988855
0.0007988849
0.001226238
0.001226237
0.001887682
0.001887682
0.002784947
0.002784947
0.003990848
0.003990848
0.005594159
0.005594161
0.007700102
0.007700097
0.01042709
0.01042708
0.01390108
0.01390107
0.01824771
0.0182477
0.02358327
0.02358326
0.03000578
0.03000576
0.03758771
0.03758768
0.04637087
0.04637084
0.05636428
0.05636423
0.06754429
0.06754423
0.07985728
0.07985726
0.09322345
0.09322342
0.1075414
0.1075414
0.1226937
0.1226936
0.1385509
0.1385508
0.1549767
0.1549766
0.1718312
0.1718312
0.1889744
0.1889744
0.206268
0.2062679
0.2235774
0.2235774
0.2407743
0.2407742
0.2577362
0.257736
0.2743479
0.2743478
0.2905037
0.2905034
0.3061055
0.3061054
0.3210652
0.321065
0.3353027
0.3353025
0.3487457
0.3487454
0.3613266
0.3613265
0.3729782
0.3729781
0.3836267
0.3836266
0.3931825
0.3931823
0.4015268
0.4015266
0.4084953
0.4084952
0.4138643
0.4138641
0.4173316
0.4173314
0.4185097
0.4185095
0.4169279
0.4169277
0.4120528
0.4120526
0.4033289
0.4033285
0.390239
0.3902389
0.3723715
0.3723713
0.3494858
0.3494857
0.3215578
0.3215577
0.2888007
0.2888006
0.251652
0.251652
0.2107414
0.2107414
0.1668267
0.1668268
0.1207974
0.1207977
0.07447058
0.07447103
0.03455293
0.03455332
0.01250582
0.01250594
0.004905472
0.00490549
0.002357063
0.002357065
0.001275295
0.001275295
0.0006389871
0.0006389871
0.0003561006
0.0003561005
5.814917e-05
5.814921e-05
3.662384e-05
3.66238e-05
)
;

boundaryField
{
    leftandright
    {
        type            cyclic;
        value           nonuniform List<scalar> 
150
(
1.838382e-10
4.337959e-08
6.379495e-07
3.844178e-06
1.449852e-05
4.072202e-05
9.32079e-05
0.000183686
0.0003237451
0.0005249735
0.0007988852
0.001226237
0.001887682
0.002784947
0.003990848
0.00559416
0.0077001
0.01042709
0.01390108
0.0182477
0.02358326
0.03000577
0.0375877
0.04637085
0.05636426
0.06754426
0.07985727
0.09322344
0.1075414
0.1226936
0.1385509
0.1549767
0.1718312
0.1889744
0.206268
0.2235774
0.2407742
0.2577361
0.2743479
0.2905036
0.3061054
0.3210651
0.3353026
0.3487455
0.3613265
0.3729782
0.3836267
0.3931824
0.4015267
0.4084953
0.4138642
0.4173315
0.4185096
0.4169278
0.4120527
0.4033287
0.3902389
0.3723714
0.3494857
0.3215577
0.2888006
0.251652
0.2107414
0.1668267
0.1207976
0.07447081
0.03455312
0.01250588
0.004905481
0.002357064
0.001275295
0.0006389871
0.0003561006
5.814919e-05
3.662382e-05
1.838382e-10
4.337959e-08
6.379495e-07
3.844178e-06
1.449852e-05
4.072202e-05
9.32079e-05
0.000183686
0.0003237451
0.0005249735
0.0007988852
0.001226237
0.001887682
0.002784947
0.003990848
0.00559416
0.0077001
0.01042709
0.01390108
0.0182477
0.02358326
0.03000577
0.0375877
0.04637085
0.05636426
0.06754426
0.07985727
0.09322344
0.1075414
0.1226936
0.1385509
0.1549767
0.1718312
0.1889744
0.206268
0.2235774
0.2407742
0.2577361
0.2743479
0.2905036
0.3061054
0.3210651
0.3353026
0.3487455
0.3613265
0.3729782
0.3836267
0.3931824
0.4015267
0.4084953
0.4138642
0.4173315
0.4185096
0.4169278
0.4120527
0.4033287
0.3902389
0.3723714
0.3494857
0.3215577
0.2888006
0.251652
0.2107414
0.1668267
0.1207976
0.07447081
0.03455312
0.01250588
0.004905481
0.002357064
0.001275295
0.0006389871
0.0003561006
5.814919e-05
3.662382e-05
)
;
    }
    wall
    {
        type            calculated;
        value           nonuniform List<scalar> 2(6.1749e-10 6.175103e-10);
    }
    frontAndBack
    {
        type            empty;
    }
    middle
    {
        type            symmetryPlane;
        value           nonuniform List<scalar> 2(3.662384e-05 3.66238e-05);
    }
}


// ************************************************************************* //
