/*--------------------------------*- C++ -*----------------------------------*\
| =========                 |                                                 |
| \\      /  F ield         | foam-extend: Open Source CFD                    |
|  \\    /   O peration     | Version:     4.0                                |
|   \\  /    A nd           | Web:         http://www.foam-extend.org         |
|    \\/     M anipulation  |                                                 |
\*---------------------------------------------------------------------------*/
FoamFile
{
    version     2.0;
    format      ascii;
    class       volScalarField;
    location    "100";
    object      f;
}
// * * * * * * * * * * * * * * * * * * * * * * * * * * * * * * * * * * * * * //

dimensions      [0 0 -1 0 0 0 0];

internalField   nonuniform List<scalar> 
150
(
0.04409261
0.04409261
0.1329203
0.1329203
0.2246909
0.2246909
0.3195352
0.3195352
0.41755
0.41755
0.5187853
0.5187853
0.6232284
0.6232284
0.7307835
0.7307835
0.8412468
0.8412469
0.954278
0.9542781
1.069367
1.069367
1.185795
1.185795
1.302942
1.302942
1.420347
1.420347
1.537453
1.537453
1.65364
1.65364
1.768253
1.768253
1.880628
1.880628
1.990113
1.990113
2.096087
2.096087
2.197979
2.197979
2.295274
2.295274
2.387523
2.387523
2.474345
2.474345
2.555426
2.555426
2.630518
2.630518
2.699436
2.699436
2.762048
2.762048
2.818275
2.818275
2.868082
2.868082
2.911473
2.911473
2.948485
2.948485
2.979186
2.979186
3.003668
3.003668
3.022046
3.022046
3.034455
3.034455
3.041048
3.041048
3.041993
3.041993
3.037474
3.037474
3.027689
3.027689
3.012851
3.012851
2.993185
2.993185
2.968931
2.968931
2.940343
2.940343
2.90769
2.90769
2.871255
2.871255
2.831339
2.831339
2.788261
2.788261
2.742355
2.742355
2.693979
2.693979
2.643511
2.643511
2.591351
2.591351
2.537909
2.537909
2.483562
2.483562
2.428671
2.428671
2.37357
2.37357
2.318563
2.318563
2.263921
2.263921
2.20988
2.20988
2.15664
2.15664
2.104367
2.104367
2.053197
2.053197
2.003244
2.003244
1.954604
1.954604
1.907364
1.907364
1.861622
1.861622
1.81751
1.81751
1.775248
1.775248
1.735222
1.735222
1.698017
1.698017
1.664393
1.664393
1.635248
1.635248
1.611599
1.611599
1.594567
1.594567
1.585379
1.585379
)
;

boundaryField
{
    leftandright
    {
        type            cyclic;
        value           nonuniform List<scalar> 
150
(
0.04409261
0.1329203
0.2246909
0.3195352
0.41755
0.5187853
0.6232284
0.7307835
0.8412469
0.954278
1.069367
1.185795
1.302942
1.420347
1.537453
1.65364
1.768253
1.880628
1.990113
2.096087
2.197979
2.295274
2.387523
2.474345
2.555426
2.630518
2.699436
2.762048
2.818275
2.868082
2.911473
2.948485
2.979186
3.003668
3.022046
3.034455
3.041048
3.041993
3.037474
3.027689
3.012851
2.993185
2.968931
2.940343
2.90769
2.871255
2.831339
2.788261
2.742355
2.693979
2.643511
2.591351
2.537909
2.483562
2.428671
2.37357
2.318563
2.263921
2.20988
2.15664
2.104367
2.053197
2.003244
1.954604
1.907364
1.861622
1.81751
1.775248
1.735222
1.698017
1.664393
1.635248
1.611599
1.594567
1.585379
0.04409261
0.1329203
0.2246909
0.3195352
0.41755
0.5187853
0.6232284
0.7307835
0.8412469
0.954278
1.069367
1.185795
1.302942
1.420347
1.537453
1.65364
1.768253
1.880628
1.990113
2.096087
2.197979
2.295274
2.387523
2.474345
2.555426
2.630518
2.699436
2.762048
2.818275
2.868082
2.911473
2.948485
2.979186
3.003668
3.022046
3.034455
3.041048
3.041993
3.037474
3.027689
3.012851
2.993185
2.968931
2.940343
2.90769
2.871255
2.831339
2.788261
2.742355
2.693979
2.643511
2.591351
2.537909
2.483562
2.428671
2.37357
2.318563
2.263921
2.20988
2.15664
2.104367
2.053197
2.003244
1.954604
1.907364
1.861622
1.81751
1.775248
1.735222
1.698017
1.664393
1.635248
1.611599
1.594567
1.585379
)
;
    }
    wall
    {
        type            fixedValue;
        value           uniform 1e-10;
    }
    frontAndBack
    {
        type            empty;
    }
    middle
    {
        type            symmetryPlane;
        value           nonuniform List<scalar> 2(1.585379 1.585379);
    }
}


// ************************************************************************* //
