/*--------------------------------*- C++ -*----------------------------------*\
| =========                 |                                                 |
| \\      /  F ield         | foam-extend: Open Source CFD                    |
|  \\    /   O peration     | Version:     4.0                                |
|   \\  /    A nd           | Web:         http://www.foam-extend.org         |
|    \\/     M anipulation  |                                                 |
\*---------------------------------------------------------------------------*/
FoamFile
{
    version     2.0;
    format      ascii;
    class       volScalarField;
    location    "100";
    object      fp;
}
// * * * * * * * * * * * * * * * * * * * * * * * * * * * * * * * * * * * * * //

dimensions      [0 0 0 0 0 0 0];

internalField   nonuniform List<scalar> 
150
(
2.245516
2.245592
2.245161
2.245186
2.24452
2.244523
2.24367
2.24367
2.242622
2.242621
2.241461
2.24146
2.24052
2.240517
2.240467
2.240465
2.242265
2.242263
2.246884
2.246883
2.254536
2.254534
2.264488
2.264486
2.276469
2.276468
2.291403
2.291402
2.310097
2.310096
2.332188
2.332187
2.356572
2.356569
2.381714
2.381712
2.40591
2.405907
2.427474
2.427471
2.444925
2.444923
2.457107
2.457104
2.463269
2.463266
2.463073
2.46307
2.456557
2.456555
2.444059
2.444057
2.426143
2.426142
2.403505
2.403504
2.376903
2.376902
2.347102
2.3471
2.314829
2.314828
2.280744
2.280744
2.24543
2.245429
2.209376
2.209375
2.172984
2.172984
2.13657
2.136569
2.100373
2.100372
2.06456
2.064558
2.029235
2.029234
1.994452
1.994452
1.960218
1.960218
1.926504
1.926503
1.893248
1.893249
1.860367
1.860367
1.827756
1.827756
1.795298
1.795298
1.762872
1.762872
1.730354
1.730354
1.697628
1.697628
1.66459
1.66459
1.631155
1.631155
1.597261
1.597261
1.562867
1.562867
1.527956
1.527956
1.492521
1.492521
1.456567
1.456567
1.420092
1.420092
1.383089
1.383089
1.345539
1.345539
1.307413
1.307413
1.268676
1.268676
1.22929
1.22929
1.189231
1.189231
1.148481
1.148481
1.107106
1.107106
1.066039
1.06604
1.030739
1.030739
1.011107
1.011107
1.004261
1.004261
1.001985
1.001985
1.001045
1.001045
1.000514
1.000514
1.000279
1.000279
1.000047
1.000047
1.000028
1.000028
)
;

boundaryField
{
    leftandright
    {
        type            cyclic;
        value           nonuniform List<scalar> 
150
(
2.245554
2.245173
2.244522
2.24367
2.242622
2.241461
2.240519
2.240466
2.242264
2.246883
2.254535
2.264487
2.276469
2.291403
2.310096
2.332188
2.35657
2.381713
2.405909
2.427472
2.444924
2.457105
2.463268
2.463072
2.456556
2.444058
2.426143
2.403505
2.376902
2.347101
2.314828
2.280744
2.245429
2.209376
2.172984
2.13657
2.100372
2.064559
2.029235
1.994452
1.960218
1.926504
1.893249
1.860367
1.827756
1.795298
1.762872
1.730354
1.697628
1.66459
1.631155
1.597261
1.562867
1.527956
1.492521
1.456567
1.420092
1.383089
1.345539
1.307413
1.268676
1.22929
1.189231
1.148481
1.107106
1.06604
1.030739
1.011107
1.004261
1.001985
1.001045
1.000514
1.000279
1.000047
1.000028
2.245554
2.245173
2.244522
2.24367
2.242622
2.241461
2.240519
2.240466
2.242264
2.246883
2.254535
2.264487
2.276469
2.291403
2.310096
2.332188
2.35657
2.381713
2.405909
2.427472
2.444924
2.457105
2.463268
2.463072
2.456556
2.444058
2.426143
2.403505
2.376902
2.347101
2.314828
2.280744
2.245429
2.209376
2.172984
2.13657
2.100372
2.064559
2.029235
1.994452
1.960218
1.926504
1.893249
1.860367
1.827756
1.795298
1.762872
1.730354
1.697628
1.66459
1.631155
1.597261
1.562867
1.527956
1.492521
1.456567
1.420092
1.383089
1.345539
1.307413
1.268676
1.22929
1.189231
1.148481
1.107106
1.06604
1.030739
1.011107
1.004261
1.001985
1.001045
1.000514
1.000279
1.000047
1.000028
)
;
    }
    wall
    {
        type            calculated;
        value           nonuniform List<scalar> 2(2.245516 2.245592);
    }
    frontAndBack
    {
        type            empty;
    }
    middle
    {
        type            symmetryPlane;
        value           nonuniform List<scalar> 2(1.000028 1.000028);
    }
}


// ************************************************************************* //
