/*--------------------------------*- C++ -*----------------------------------*\
| =========                 |                                                 |
| \\      /  F ield         | foam-extend: Open Source CFD                    |
|  \\    /   O peration     | Version:     4.0                                |
|   \\  /    A nd           | Web:         http://www.foam-extend.org         |
|    \\/     M anipulation  |                                                 |
\*---------------------------------------------------------------------------*/
FoamFile
{
    version     2.0;
    format      ascii;
    class       volScalarField;
    location    "100";
    object      k;
}
// * * * * * * * * * * * * * * * * * * * * * * * * * * * * * * * * * * * * * //

dimensions      [0 2 -2 0 0 0 0];

internalField   nonuniform List<scalar> 
150
(
0.003434725
0.003434725
0.03703958
0.03703959
0.09879522
0.09879524
0.1901655
0.1901656
0.3126463
0.3126464
0.4674532
0.4674533
0.655152
0.6551521
0.8753615
0.8753616
1.126654
1.126654
1.406699
1.406699
1.712604
1.712604
2.040489
2.040489
2.381998
2.381998
2.72538
2.725381
3.059902
3.059903
3.375504
3.375505
3.663413
3.663413
3.916608
3.916608
4.130107
4.130107
4.301058
4.301058
4.428641
4.428642
4.513824
4.513825
4.559018
4.559019
4.567689
4.56769
4.543973
4.543973
4.492327
4.492327
4.417249
4.417249
4.323054
4.323054
4.213734
4.213735
4.092863
4.092863
3.963555
3.963556
3.828469
3.828469
3.689817
3.689817
3.549412
3.549412
3.408708
3.408708
3.268849
3.26885
3.13072
3.13072
2.994987
2.994987
2.862147
2.862147
2.73256
2.73256
2.606484
2.606484
2.484106
2.484106
2.365564
2.365564
2.250978
2.250978
2.140461
2.140461
2.034146
2.034146
1.932193
1.932193
1.8348
1.8348
1.742214
1.742214
1.654721
1.654721
1.572639
1.572639
1.496298
1.496298
1.426009
1.426009
1.362033
1.362033
1.304539
1.304539
1.253572
1.253572
1.209029
1.209029
1.170638
1.170638
1.137959
1.137959
1.110386
1.110386
1.087153
1.087153
1.067342
1.067342
1.049882
1.049882
1.033546
1.033546
1.016938
1.016938
0.9984919
0.9984919
0.9765976
0.9765976
0.9502068
0.9502068
0.9197921
0.9197921
0.8871323
0.8871323
0.8544807
0.8544807
0.8241544
0.8241544
0.7983883
0.7983882
0.779292
0.779292
0.7688163
0.7688163
)
;

boundaryField
{
    leftandright
    {
        type            cyclic;
        value           nonuniform List<scalar> 
150
(
0.003434725
0.03703958
0.09879523
0.1901655
0.3126463
0.4674532
0.655152
0.8753616
1.126654
1.406699
1.712604
2.040489
2.381998
2.725381
3.059902
3.375505
3.663413
3.916608
4.130107
4.301058
4.428642
4.513825
4.559019
4.56769
4.543973
4.492327
4.417249
4.323054
4.213734
4.092863
3.963556
3.828469
3.689817
3.549412
3.408708
3.26885
3.13072
2.994987
2.862147
2.73256
2.606484
2.484106
2.365564
2.250978
2.140461
2.034146
1.932193
1.8348
1.742214
1.654721
1.572639
1.496298
1.426009
1.362033
1.304539
1.253572
1.209029
1.170638
1.137959
1.110386
1.087153
1.067342
1.049882
1.033546
1.016938
0.9984919
0.9765976
0.9502068
0.9197921
0.8871323
0.8544807
0.8241544
0.7983882
0.779292
0.7688163
0.003434725
0.03703958
0.09879523
0.1901655
0.3126463
0.4674532
0.655152
0.8753616
1.126654
1.406699
1.712604
2.040489
2.381998
2.725381
3.059902
3.375505
3.663413
3.916608
4.130107
4.301058
4.428642
4.513825
4.559019
4.56769
4.543973
4.492327
4.417249
4.323054
4.213734
4.092863
3.963556
3.828469
3.689817
3.549412
3.408708
3.26885
3.13072
2.994987
2.862147
2.73256
2.606484
2.484106
2.365564
2.250978
2.140461
2.034146
1.932193
1.8348
1.742214
1.654721
1.572639
1.496298
1.426009
1.362033
1.304539
1.253572
1.209029
1.170638
1.137959
1.110386
1.087153
1.067342
1.049882
1.033546
1.016938
0.9984919
0.9765976
0.9502068
0.9197921
0.8871323
0.8544807
0.8241544
0.7983882
0.779292
0.7688163
)
;
    }
    wall
    {
        type            fixedValue;
        value           uniform 1e-10;
    }
    frontAndBack
    {
        type            empty;
    }
    middle
    {
        type            symmetryPlane;
        value           nonuniform List<scalar> 2(0.7688163 0.7688163);
    }
}


// ************************************************************************* //
