/*--------------------------------*- C++ -*----------------------------------*\
| =========                 |                                                 |
| \\      /  F ield         | foam-extend: Open Source CFD                    |
|  \\    /   O peration     | Version:     4.0                                |
|   \\  /    A nd           | Web:         http://www.foam-extend.org         |
|    \\/     M anipulation  |                                                 |
\*---------------------------------------------------------------------------*/
FoamFile
{
    version     2.0;
    format      ascii;
    class       volSymmTensorField;
    location    "100";
    object      N;
}
// * * * * * * * * * * * * * * * * * * * * * * * * * * * * * * * * * * * * * //

dimensions      [0 2 -2 0 0 0 0];

internalField   nonuniform List<symmTensor> 
150
(
(0.006771662 0 0 4.048536e-07 0 9.738222e-05)
(0.006771666 0 0 4.048537e-07 0 9.737927e-05)
(0.07300894 0 0 1.991372e-05 0 0.001050304)
(0.07300896 0 0 1.991372e-05 0 0.001050294)
(0.1933057 0 0 0.0001220188 0 0.004162744)
(0.1933057 0 0 0.0001220188 0 0.004162745)
(0.3694261 0 0 0.0004084819 0 0.01049648)
(0.3694261 0 0 0.000408482 0 0.01049648)
(0.6032949 0 0 0.001006029 0 0.0209917)
(0.603295 0 0 0.00100603 0 0.0209917)
(0.8963841 0 0 0.002053837 0 0.03646848)
(0.8963842 0 0 0.002053838 0 0.03646849)
(1.249023 1.35913e-18 0 0.003692231 0 0.05758922)
(1.249023 -1.35913e-18 0 0.003692232 0 0.05758923)
(1.659835 0 0 0.006053548 0 0.08483456)
(1.659835 0 0 0.00605355 0 0.08483458)
(2.125558 0 0 0.009256063 0 0.1184933)
(2.125559 -4.986526e-18 0 0.009256066 0 0.1184933)
(2.641322 0 0 0.01340119 0 0.1586741)
(2.641323 0 0 0.01340119 0 0.1586741)
(3.201296 0 0 0.01857342 0 0.2053389)
(3.201296 0 0 0.01857342 0 0.205339)
(3.797957 -1.834694e-17 0 0.02482275 0 0.2581979)
(3.797958 1.834695e-17 0 0.02482275 0 0.258198)
(4.415463 0 0 0.03214392 0 0.3163886)
(4.415464 0 0 0.03214393 0 0.3163886)
(5.031599 2.406145e-17 0 0.04050528 0 0.378657)
(5.031599 -2.406145e-17 0 0.04050529 0 0.3786571)
(5.626223 0 0 0.04986435 0 0.443717)
(5.626224 0 0 0.04986436 0 0.443717)
(6.180695 -2.898254e-17 0 0.06015056 0 0.5101637)
(6.180695 0 0 0.06015058 0 0.5101638)
(6.679008 0 0 0.07126685 0 0.5765513)
(6.679009 0 0 0.07126686 0 0.5765513)
(7.108649 6.509858e-17 0 0.08309345 0 0.6414727)
(7.10865 0 0 0.08309347 0 0.6414727)
(7.461086 0 0 0.0954936 0 0.7036349)
(7.461086 0 0 0.09549362 0 0.7036349)
(7.731877 -1.379384e-16 0 0.10832 0 0.7619196)
(7.731877 6.896921e-17 0 0.10832 0 0.7619197)
(7.920436 0 0 0.1214213 0 0.8154253)
(7.920437 0 0 0.1214213 0 0.8154254)
(8.029514 1.392213e-16 0 0.1346484 0 0.8634866)
(8.029514 0 0 0.1346485 0 0.8634867)
(8.064503 1.377173e-16 0 0.1478593 0 0.905675)
(8.064503 0 0 0.1478593 0 0.9056751)
(8.032675 0 0 0.1609225 0 0.9417819)
(8.032675 0 0 0.1609225 0 0.9417819)
(7.942436 -1.312706e-16 0 0.1737195 0 0.97179)
(7.942437 0 0 0.1737195 0 0.9717901)
(7.802669 -1.26706e-16 0 0.1861461 0 0.9958394)
(7.802669 0 0 0.1861461 0 0.9958394)
(7.622195 -2.429901e-16 0 0.1981123 0 1.01419)
(7.622195 0 0 0.1981124 0 1.01419)
(7.40938 0 0 0.2095421 0 1.027187)
(7.40938 0 0 0.2095421 0 1.027187)
(7.171867 0 0 0.2203722 0 1.035229)
(7.171868 0 0 0.2203722 0 1.035229)
(6.916431 0 0 0.230551 0 1.038743)
(6.916431 0 0 0.2305511 0 1.038743)
(6.64891 1.946841e-16 0 0.2400375 0 1.038163)
(6.648911 -1.946841e-16 0 0.2400375 0 1.038163)
(6.374224 1.821976e-16 0 0.2487996 0 1.033914)
(6.374224 0 0 0.2487996 0 1.033914)
(6.096419 -5.097293e-16 0 0.2568137 0 1.026401)
(6.096419 0 0 0.2568137 0 1.026401)
(5.818755 0 0 0.2640634 0 1.016006)
(5.818755 0 0 0.2640634 0 1.016006)
(5.543797 2.927681e-16 0 0.270539 0 1.003081)
(5.543797 0 0 0.270539 0 1.003081)
(5.273516 0 0 0.2762373 0 0.9879455)
(5.273516 0 0 0.2762373 0 0.9879455)
(5.009384 4.990031e-16 0 0.2811611 0 0.9708936)
(5.009384 -2.495015e-16 0 0.2811611 0 0.9708936)
(4.752464 0 0 0.2853198 0 0.9521901)
(4.752464 0 0 0.2853198 0 0.9521901)
(4.503489 0 0 0.2887292 0 0.9320765)
(4.503489 0 0 0.2887292 0 0.9320765)
(4.262934 0 0 0.2914122 0 0.9107741)
(4.262934 0 0 0.2914122 0 0.9107741)
(4.031081 0 0 0.2933995 0 0.8884882)
(4.031081 0 0 0.2933994 0 0.8884882)
(3.808069 0 0 0.2947301 0 0.8654124)
(3.808069 0 0 0.2947301 0 0.8654123)
(3.593943 0 0 0.2954526 0 0.8417329)
(3.593943 0 0 0.2954526 0 0.8417329)
(3.388697 -5.328234e-16 0 0.2956255 0 0.8176333)
(3.388697 0 0 0.2956255 0 0.8176333)
(3.192306 -2.417905e-16 0 0.2953183 0 0.7932988)
(3.192306 0 0 0.2953183 0 0.7932987)
(3.004761 0 0 0.2946117 0 0.7689196)
(3.004761 0 0 0.2946117 0 0.7689196)
(2.826093 0 0 0.2935978 0 0.7446949)
(2.826093 0 0 0.2935978 0 0.7446948)
(2.656388 0 0 0.2923795 0 0.7208338)
(2.656388 0 0 0.2923795 0 0.7208338)
(2.495804 3.233754e-16 0 0.2910686 0 0.6975568)
(2.495804 0 0 0.2910686 0 0.6975567)
(2.344567 2.916212e-16 0 0.2897833 0 0.6750926)
(2.344567 -2.916212e-16 0 0.2897832 0 0.6750926)
(2.202961 0 0 0.2886438 0 0.6536742)
(2.202961 0 0 0.2886438 0 0.6536741)
(2.071298 0 0 0.2877675 0 0.6335304)
(2.071298 0 0 0.2877675 0 0.6335304)
(1.949881 0 0 0.2872617 0 0.6148753)
(1.949881 0 0 0.2872616 0 0.6148753)
(1.838953 0 0 0.2872171 0 0.5978952)
(1.838953 0 0 0.2872171 0 0.5978952)
(1.738641 0 0 0.2877014 0 0.5827348)
(1.738641 0 0 0.2877014 0 0.5827348)
(1.648905 -3.15089e-16 0 0.288754 0 0.5694851)
(1.648905 3.15089e-16 0 0.288754 0 0.5694851)
(1.569502 0 0 0.2903825 0 0.5581726)
(1.569502 0 0 0.2903824 0 0.5581726)
(1.499962 0 0 0.2925606 0 0.548753)
(1.499962 0 0 0.2925605 0 0.5487529)
(1.439583 -2.376381e-16 0 0.2952283 0 0.5411073)
(1.439583 2.376381e-16 0 0.2952282 0 0.5411073)
(1.387439 0 0 0.298292 0 0.5350416)
(1.387439 0 0 0.298292 0 0.5350416)
(1.342394 0 0 0.3016251 0 0.5302869)
(1.342394 0 0 0.3016251 0 0.5302869)
(1.303117 0 0 0.3050673 0 0.526499)
(1.303117 0 0 0.3050673 0 0.5264989)
(1.268085 -6.803924e-16 0 0.3084219 0 0.5232558)
(1.268085 0 0 0.3084219 0 0.5232558)
(1.235589 0 0 0.3114507 0 0.5200521)
(1.235589 -3.142637e-16 0 0.3114507 0 0.5200521)
(1.203721 0 0 0.3138652 0 0.5162896)
(1.203721 0 0 0.3138652 0 0.5162896)
(1.170402 0 0 0.3153126 0 0.511269)
(1.170402 0 0 0.3153126 0 0.511269)
(1.133603 0 0 0.3153666 0 0.5042256)
(1.133603 -4.900005e-16 0 0.3153666 0 0.5042256)
(1.092279 0 0 0.3135759 0 0.4945592)
(1.092279 0 0 0.3135759 0 0.4945592)
(1.047767 0 0 0.3095865 0 0.4822306)
(1.047767 0 0 0.3095864 0 0.4822306)
(1.002148 0 0 0.3039514 0 0.4681657)
(1.002148 0 0 0.3039514 0 0.4681657)
(0.9579101 0 0 0.2974669 0 0.4535843)
(0.9579101 0 0 0.2974669 0 0.4535843)
(0.9176613 0 0 0.2909246 0 0.4397229)
(0.9176613 0 0 0.2909246 0 0.4397229)
(0.8839409 0 0 0.2850714 0 0.4277642)
(0.8839409 0 0 0.2850714 0 0.4277642)
(0.8591794 0 0 0.2805915 0 0.4188131)
(0.8591794 0 0 0.2805915 0 0.4188131)
(0.8456694 -4.728767e-16 0 0.2780887 0 0.4138746)
(0.8456694 0 0 0.2780887 0 0.4138746)
)
;

boundaryField
{
    leftandright
    {
        type            cyclic;
        value           nonuniform List<symmTensor> 
150
(
(0.006771664 0 0 4.048537e-07 0 9.738074e-05)
(0.07300895 0 0 1.991372e-05 0 0.001050299)
(0.1933057 0 0 0.0001220188 0 0.004162744)
(0.3694261 0 0 0.0004084819 0 0.01049648)
(0.603295 0 0 0.001006029 0 0.0209917)
(0.8963842 0 0 0.002053838 0 0.03646848)
(1.249023 -7.473732e-34 0 0.003692231 0 0.05758923)
(1.659835 0 0 0.006053549 0 0.08483457)
(2.125559 -2.493263e-18 0 0.009256064 0 0.1184933)
(2.641322 0 0 0.01340119 0 0.1586741)
(3.201296 0 0 0.01857342 0 0.205339)
(3.797957 -1.438286e-33 0 0.02482275 0 0.2581979)
(4.415463 0 0 0.03214392 0 0.3163886)
(5.031599 6.252064e-33 0 0.04050529 0 0.3786571)
(5.626224 0 0 0.04986436 0 0.443717)
(6.180695 -1.449127e-17 0 0.06015057 0 0.5101637)
(6.679008 0 0 0.07126685 0 0.5765513)
(7.10865 3.254929e-17 0 0.08309346 0 0.6414727)
(7.461086 0 0 0.09549361 0 0.7036349)
(7.731877 -3.44846e-17 0 0.10832 0 0.7619197)
(7.920437 0 0 0.1214213 0 0.8154253)
(8.029514 6.961063e-17 0 0.1346485 0 0.8634866)
(8.064503 6.885867e-17 0 0.1478593 0 0.9056751)
(8.032675 0 0 0.1609225 0 0.9417819)
(7.942436 -6.563528e-17 0 0.1737195 0 0.9717901)
(7.802669 -6.335299e-17 0 0.1861461 0 0.9958394)
(7.622195 -1.214951e-16 0 0.1981124 0 1.01419)
(7.40938 0 0 0.2095421 0 1.027187)
(7.171868 0 0 0.2203722 0 1.035229)
(6.916431 0 0 0.2305511 0 1.038743)
(6.64891 0 0 0.2400375 0 1.038163)
(6.374224 9.109878e-17 0 0.2487996 0 1.033914)
(6.096419 -2.548646e-16 0 0.2568137 0 1.026401)
(5.818755 0 0 0.2640634 0 1.016006)
(5.543797 1.46384e-16 0 0.270539 0 1.003081)
(5.273516 0 0 0.2762373 0 0.9879455)
(5.009384 1.247508e-16 0 0.2811611 0 0.9708936)
(4.752464 0 0 0.2853198 0 0.9521901)
(4.503489 0 0 0.2887292 0 0.9320765)
(4.262934 0 0 0.2914122 0 0.9107741)
(4.031081 0 0 0.2933995 0 0.8884882)
(3.808069 0 0 0.2947301 0 0.8654124)
(3.593943 0 0 0.2954526 0 0.8417329)
(3.388697 -2.664117e-16 0 0.2956255 0 0.8176333)
(3.192306 -1.208952e-16 0 0.2953183 0 0.7932988)
(3.004761 0 0 0.2946117 0 0.7689196)
(2.826093 0 0 0.2935978 0 0.7446948)
(2.656388 0 0 0.2923795 0 0.7208338)
(2.495804 1.616877e-16 0 0.2910686 0 0.6975568)
(2.344567 3.229527e-31 0 0.2897832 0 0.6750926)
(2.202961 0 0 0.2886438 0 0.6536742)
(2.071298 0 0 0.2877675 0 0.6335304)
(1.949881 0 0 0.2872617 0 0.6148753)
(1.838953 0 0 0.2872171 0 0.5978952)
(1.738641 0 0 0.2877014 0 0.5827348)
(1.648905 -2.768222e-32 0 0.288754 0 0.5694851)
(1.569502 0 0 0.2903824 0 0.5581726)
(1.499962 0 0 0.2925605 0 0.548753)
(1.439583 -4.84911e-32 0 0.2952282 0 0.5411073)
(1.387439 0 0 0.298292 0 0.5350416)
(1.342394 0 0 0.3016251 0 0.5302869)
(1.303117 0 0 0.3050673 0 0.526499)
(1.268085 -3.401962e-16 0 0.3084219 0 0.5232558)
(1.235589 -1.571319e-16 0 0.3114507 0 0.5200521)
(1.203721 0 0 0.3138652 0 0.5162896)
(1.170402 0 0 0.3153126 0 0.511269)
(1.133603 -2.450002e-16 0 0.3153666 0 0.5042256)
(1.092279 0 0 0.3135759 0 0.4945592)
(1.047767 0 0 0.3095864 0 0.4822306)
(1.002148 0 0 0.3039514 0 0.4681657)
(0.9579101 0 0 0.2974669 0 0.4535843)
(0.9176613 0 0 0.2909246 0 0.4397229)
(0.8839409 0 0 0.2850714 0 0.4277642)
(0.8591794 0 0 0.2805915 0 0.4188131)
(0.8456694 -2.364383e-16 0 0.2780887 0 0.4138746)
(0.006771664 0 0 4.048537e-07 0 9.738074e-05)
(0.07300895 0 0 1.991372e-05 0 0.001050299)
(0.1933057 0 0 0.0001220188 0 0.004162744)
(0.3694261 0 0 0.0004084819 0 0.01049648)
(0.603295 0 0 0.001006029 0 0.0209917)
(0.8963842 0 0 0.002053838 0 0.03646848)
(1.249023 -8.304147e-34 0 0.003692231 0 0.05758923)
(1.659835 0 0 0.006053549 0 0.08483457)
(2.125559 -2.493263e-18 0 0.009256064 0 0.1184933)
(2.641322 0 0 0.01340119 0 0.1586741)
(3.201296 0 0 0.01857342 0 0.205339)
(3.797957 -1.438286e-33 0 0.02482275 0 0.2581979)
(4.415463 0 0 0.03214392 0 0.3163886)
(5.031599 6.252064e-33 0 0.04050529 0 0.3786571)
(5.626224 0 0 0.04986436 0 0.443717)
(6.180695 -1.449127e-17 0 0.06015057 0 0.5101637)
(6.679008 0 0 0.07126685 0 0.5765513)
(7.10865 3.254929e-17 0 0.08309346 0 0.6414727)
(7.461086 0 0 0.09549361 0 0.7036349)
(7.731877 -3.44846e-17 0 0.10832 0 0.7619197)
(7.920437 0 0 0.1214213 0 0.8154253)
(8.029514 6.961063e-17 0 0.1346485 0 0.8634866)
(8.064503 6.885867e-17 0 0.1478593 0 0.9056751)
(8.032675 0 0 0.1609225 0 0.9417819)
(7.942436 -6.563528e-17 0 0.1737195 0 0.9717901)
(7.802669 -6.335299e-17 0 0.1861461 0 0.9958394)
(7.622195 -1.214951e-16 0 0.1981124 0 1.01419)
(7.40938 0 0 0.2095421 0 1.027187)
(7.171868 0 0 0.2203722 0 1.035229)
(6.916431 0 0 0.2305511 0 1.038743)
(6.64891 0 0 0.2400375 0 1.038163)
(6.374224 9.109878e-17 0 0.2487996 0 1.033914)
(6.096419 -2.548646e-16 0 0.2568137 0 1.026401)
(5.818755 0 0 0.2640634 0 1.016006)
(5.543797 1.46384e-16 0 0.270539 0 1.003081)
(5.273516 0 0 0.2762373 0 0.9879455)
(5.009384 1.247508e-16 0 0.2811611 0 0.9708936)
(4.752464 0 0 0.2853198 0 0.9521901)
(4.503489 0 0 0.2887292 0 0.9320765)
(4.262934 0 0 0.2914122 0 0.9107741)
(4.031081 0 0 0.2933995 0 0.8884882)
(3.808069 0 0 0.2947301 0 0.8654124)
(3.593943 0 0 0.2954526 0 0.8417329)
(3.388697 -2.664117e-16 0 0.2956255 0 0.8176333)
(3.192306 -1.208952e-16 0 0.2953183 0 0.7932988)
(3.004761 0 0 0.2946117 0 0.7689196)
(2.826093 0 0 0.2935978 0 0.7446948)
(2.656388 0 0 0.2923795 0 0.7208338)
(2.495804 1.616877e-16 0 0.2910686 0 0.6975568)
(2.344567 3.229527e-31 0 0.2897832 0 0.6750926)
(2.202961 0 0 0.2886438 0 0.6536742)
(2.071298 0 0 0.2877675 0 0.6335304)
(1.949881 0 0 0.2872617 0 0.6148753)
(1.838953 0 0 0.2872171 0 0.5978952)
(1.738641 0 0 0.2877014 0 0.5827348)
(1.648905 -2.768222e-32 0 0.288754 0 0.5694851)
(1.569502 0 0 0.2903824 0 0.5581726)
(1.499962 0 0 0.2925605 0 0.548753)
(1.439583 -4.84911e-32 0 0.2952282 0 0.5411073)
(1.387439 0 0 0.298292 0 0.5350416)
(1.342394 0 0 0.3016251 0 0.5302869)
(1.303117 0 0 0.3050673 0 0.526499)
(1.268085 -3.401962e-16 0 0.3084219 0 0.5232558)
(1.235589 -1.571319e-16 0 0.3114507 0 0.5200521)
(1.203721 0 0 0.3138652 0 0.5162896)
(1.170402 0 0 0.3153126 0 0.511269)
(1.133603 -2.450002e-16 0 0.3153666 0 0.5042256)
(1.092279 0 0 0.3135759 0 0.4945592)
(1.047767 0 0 0.3095864 0 0.4822306)
(1.002148 0 0 0.3039514 0 0.4681657)
(0.9579101 0 0 0.2974669 0 0.4535843)
(0.9176613 0 0 0.2909246 0 0.4397229)
(0.8839409 0 0 0.2850714 0 0.4277642)
(0.8591794 0 0 0.2805915 0 0.4188131)
(0.8456694 -2.364383e-16 0 0.2780887 0 0.4138746)
)
;
    }
    wall
    {
        type            calculated;
        value           uniform (3.333333e-11 0 0 1e-10 0 6.666667e-11);
    }
    frontAndBack
    {
        type            empty;
    }
    middle
    {
        type            symmetryPlane;
        value           nonuniform List<symmTensor> 2((0.8456694 0 0 0.4138746 0 0.4138746) (0.8456694 0 0 0.4138746 0 0.4138746));
    }
}


// ************************************************************************* //
