/*--------------------------------*- C++ -*----------------------------------*\
| =========                 |                                                 |
| \\      /  F ield         | foam-extend: Open Source CFD                    |
|  \\    /   O peration     | Version:     4.0                                |
|   \\  /    A nd           | Web:         http://www.foam-extend.org         |
|    \\/     M anipulation  |                                                 |
\*---------------------------------------------------------------------------*/
FoamFile
{
    version     2.0;
    format      ascii;
    class       volSymmTensorField;
    location    "100";
    object      NLT;
}
// * * * * * * * * * * * * * * * * * * * * * * * * * * * * * * * * * * * * * //

dimensions      [0 0 -1 0 0 0 0];

internalField   nonuniform List<symmTensor> 
150
(
(0.002136884 0 0 1.637195e-07 0 0)
(0.002136882 0 0 1.637194e-07 0 0)
(0.1105364 0 0 3.862824e-05 0 0)
(0.1105364 0 0 3.862824e-05 0 0)
(0.7075073 0 0 0.0005679826 0 0)
(0.7075075 0 0 0.0005679829 0 0)
(2.450785 0 0 0.003421839 0 0)
(2.450786 0 0 0.003421841 0 0)
(6.16894 0 0 0.01290272 0 0)
(6.168943 0 0 0.01290273 0 0)
(12.68643 0 0 0.03623104 0 0)
(12.68644 0 0 0.03623106 0 0)
(22.62962 -2.09042e-18 0 0.08289671 0 0)
(22.62962 2.090421e-18 0 0.08289675 0 0)
(36.31409 0 0 0.1632342 0 0)
(36.3141 0 0 0.1632342 0 0)
(53.78677 0 0 0.2872266 0 0)
(53.78679 1.31115e-17 0 0.2872267 0 0)
(74.9966 0 0 0.4644053 0 0)
(74.99662 0 0 0.4644054 0 0)
(99.8274 0 0 0.703717 0 0)
(99.82743 0 0 0.7037172 0 0)
(135.8865 8.44723e-17 0 1.074497 0 0)
(135.8865 -8.447233e-17 0 1.074498 0 0)
(187.4238 0 0 1.643977 0 0)
(187.4239 0 0 1.643977 0 0)
(249.2089 -1.713056e-16 0 2.407473 0 0)
(249.209 1.713057e-16 0 2.407474 0 0)
(322.7635 0 0 3.418853 0 0)
(322.7636 0 0 3.418854 0 0)
(409.4274 3.054235e-16 0 4.742325 0 0)
(409.4276 0 0 4.742328 0 0)
(510.3465 0 0 6.453274 0 0)
(510.3466 0 0 6.453277 0 0)
(626.2918 -1.006906e-15 0 8.636679 0 0)
(626.2919 0 0 8.636682 0 0)
(757.5059 0 0 11.38446 0 0)
(757.5061 0 0 11.38446 0 0)
(903.6017 3.121741e-15 0 14.79189 0 0)
(903.6019 -1.560871e-15 0 14.79189 0 0)
(1063.533 0 0 18.95346 0 0)
(1063.533 0 0 18.95347 0 0)
(1235.641 -4.576534e-15 0 23.95865 0 0)
(1235.641 0 0 23.95866 0 0)
(1417.767 -5.431508e-15 0 29.8879 0 0)
(1417.767 0 0 29.88791 0 0)
(1607.396 0 0 36.80921 0 0)
(1607.397 0 0 36.80922 0 0)
(1801.823 7.36486e-15 0 44.77529 0 0)
(1801.824 0 0 44.7753 0 0)
(1998.298 8.42234e-15 0 53.82154 0 0)
(1998.298 0 0 53.82155 0 0)
(2194.154 1.904571e-14 0 63.96467 0 0)
(2194.154 0 0 63.96467 0 0)
(2386.91 0 0 75.20211 0 0)
(2386.91 0 0 75.20211 0 0)
(2574.335 0 0 87.5121 0 0)
(2574.335 0 0 87.5121 0 0)
(2754.491 0 0 100.8544 0 0)
(2754.491 0 0 100.8544 0 0)
(2925.747 -2.809335e-14 0 115.1713 0 0)
(2925.747 2.809335e-14 0 115.1713 0 0)
(3086.776 -3.025889e-14 0 130.3897 0 0)
(3086.776 0 0 130.3897 0 0)
(3236.544 9.698172e-14 0 146.4226 0 0)
(3236.544 0 0 146.4227 0 0)
(3374.275 0 0 163.172 0 0)
(3374.275 0 0 163.172 0 0)
(3499.434 -7.215105e-14 0 180.5308 0 0)
(3499.434 0 0 180.5308 0 0)
(3611.675 0 0 198.3853 0 0)
(3611.675 0 0 198.3853 0 0)
(3710.834 -1.567179e-13 0 216.6187 0 0)
(3710.834 7.835894e-14 0 216.6187 0 0)
(3796.876 0 0 235.1131 0 0)
(3796.876 0 0 235.1131 0 0)
(3869.872 0 0 253.7516 0 0)
(3869.872 0 0 253.7515 0 0)
(3929.99 0 0 272.4224 0 0)
(3929.987 0 0 272.4221 0 0)
(3977.44 0 0 291.0189 0 0)
(3977.439 0 0 291.0188 0 0)
(4012.482 0 0 309.4432 0 0)
(4012.482 0 0 309.4431 0 0)
(4035.39 0 0 327.6061 0 0)
(4035.388 0 0 327.6059 0 0)
(4046.428 3.525837e-13 0 345.4267 0 0)
(4046.426 0 0 345.4265 0 0)
(4045.835 1.761698e-13 0 362.8311 0 0)
(4045.835 0 0 362.831 0 0)
(4033.798 0 0 379.7478 0 0)
(4033.797 0 0 379.7477 0 0)
(4010.404 0 0 396.0992 0 0)
(4010.404 0 0 396.0991 0 0)
(3975.632 0 0 411.7918 0 0)
(3975.631 0 0 411.7916 0 0)
(3929.289 -3.394534e-13 0 426.6985 0 0)
(3929.289 0 0 426.6984 0 0)
(3870.977 -3.33497e-13 0 440.6384 0 0)
(3870.976 3.334969e-13 0 440.6382 0 0)
(3800.065 0 0 453.3541 0 0)
(3800.064 0 0 453.3539 0 0)
(3715.65 0 0 464.4852 0 0)
(3715.649 0 0 464.485 0 0)
(3616.575 0 0 473.5503 0 0)
(3616.574 0 0 473.5502 0 0)
(3501.464 0 0 479.9387 0 0)
(3501.463 0 0 479.9385 0 0)
(3368.81 0 0 482.9198 0 0)
(3368.809 0 0 482.9196 0 0)
(3217.104 5.406299e-13 0 481.6785 0 0)
(3217.102 -5.406294e-13 0 481.6781 0 0)
(3045.003 0 0 475.3734 0 0)
(3045.002 0 0 475.3733 0 0)
(2851.473 0 0 463.2079 0 0)
(2851.473 0 0 463.2078 0 0)
(2635.92 4.29607e-13 0 444.5052 0 0)
(2635.92 -4.296069e-13 0 444.5051 0 0)
(2398.236 0 0 418.7674 0 0)
(2398.236 0 0 418.7673 0 0)
(2138.812 0 0 385.7117 0 0)
(2138.812 0 0 385.7116 0 0)
(1858.478 0 0 345.2733 0 0)
(1858.478 0 0 345.2733 0 0)
(1558.455 9.424736e-13 0 297.5861 0 0)
(1558.456 0 0 297.5861 0 0)
(1240.241 0 0 242.9289 0 0)
(1240.242 3.659793e-13 0 242.929 0 0)
(905.9936 0 0 181.7553 0 0)
(905.9955 0 0 181.7557 0 0)
(564.7313 0 0 115.9183 0 0)
(564.7345 0 0 115.9189 0 0)
(263.9948 0 0 55.41262 0 0)
(263.9976 1.437713e-13 0 55.41323 0 0)
(94.95106 0 0 20.3675 0 0)
(94.95199 0 0 20.3677 0 0)
(36.63749 0 0 8.015513 0 0)
(36.63763 0 0 8.015543 0 0)
(17.27752 0 0 3.847783 0 0)
(17.27753 0 0 3.847786 0 0)
(9.18204 0 0 2.077729 0 0)
(9.182044 0 0 2.07773 0 0)
(4.527888 0 0 1.038917 0 0)
(4.527888 0 0 1.038917 0 0)
(2.489883 0 0 0.5778724 0 0)
(2.489883 0 0 0.5778722 0 0)
(0.4026512 0 0 0.09423594 0 0)
(0.4026514 0 0 0.094236 0 0)
(0.2522281 2.065193e-16 0 0.05930175 0 0)
(0.2522278 0 0 0.05930168 0 0)
)
;

boundaryField
{
    leftandright
    {
        type            cyclic;
        value           nonuniform List<symmTensor> 
150
(
(0.002136883 0 0 1.637194e-07 0 0)
(0.1105364 0 0 3.862824e-05 0 0)
(0.7075074 0 0 0.0005679828 0 0)
(2.450785 0 0 0.00342184 0 0)
(6.168941 0 0 0.01290272 0 0)
(12.68643 0 0 0.03623105 0 0)
(22.62962 1.149504e-33 0 0.08289673 0 0)
(36.3141 0 0 0.1632342 0 0)
(53.78678 6.555746e-18 0 0.2872266 0 0)
(74.99661 0 0 0.4644054 0 0)
(99.82742 0 0 0.7037171 0 0)
(135.8865 6.622101e-33 0 1.074497 0 0)
(187.4239 0 0 1.643977 0 0)
(249.2089 -4.45116e-32 0 2.407473 0 0)
(322.7636 0 0 3.418853 0 0)
(409.4275 1.527118e-16 0 4.742326 0 0)
(510.3465 0 0 6.453275 0 0)
(626.2918 -5.034532e-16 0 8.636681 0 0)
(757.506 0 0 11.38446 0 0)
(903.6018 7.804354e-16 0 14.79189 0 0)
(1063.533 0 0 18.95346 0 0)
(1235.641 -2.288268e-15 0 23.95865 0 0)
(1417.767 -2.715755e-15 0 29.88791 0 0)
(1607.396 0 0 36.80921 0 0)
(1801.824 3.68243e-15 0 44.7753 0 0)
(1998.298 4.21117e-15 0 53.82155 0 0)
(2194.154 9.522858e-15 0 63.96467 0 0)
(2386.91 0 0 75.20211 0 0)
(2574.335 0 0 87.5121 0 0)
(2754.491 0 0 100.8544 0 0)
(2925.747 0 0 115.1713 0 0)
(3086.776 -1.512945e-14 0 130.3897 0 0)
(3236.544 4.849086e-14 0 146.4226 0 0)
(3374.275 0 0 163.172 0 0)
(3499.434 -3.607553e-14 0 180.5308 0 0)
(3611.675 0 0 198.3853 0 0)
(3710.834 -3.917947e-14 0 216.6187 0 0)
(3796.876 0 0 235.1131 0 0)
(3869.872 0 0 253.7516 0 0)
(3929.988 0 0 272.4222 0 0)
(3977.44 0 0 291.0188 0 0)
(4012.482 0 0 309.4432 0 0)
(4035.389 0 0 327.606 0 0)
(4046.427 1.762918e-13 0 345.4266 0 0)
(4045.835 8.808487e-14 0 362.8311 0 0)
(4033.797 0 0 379.7477 0 0)
(4010.404 0 0 396.0991 0 0)
(3975.632 0 0 411.7917 0 0)
(3929.289 -1.697267e-13 0 426.6984 0 0)
(3870.976 -3.693275e-28 0 440.6383 0 0)
(3800.065 0 0 453.354 0 0)
(3715.65 0 0 464.4851 0 0)
(3616.574 0 0 473.5503 0 0)
(3501.464 0 0 479.9386 0 0)
(3368.81 0 0 482.9197 0 0)
(3217.103 4.749715e-29 0 481.6783 0 0)
(3045.002 0 0 475.3733 0 0)
(2851.473 0 0 463.2078 0 0)
(2635.92 8.766319e-29 0 444.5052 0 0)
(2398.236 0 0 418.7673 0 0)
(2138.812 0 0 385.7117 0 0)
(1858.478 0 0 345.2733 0 0)
(1558.456 4.712368e-13 0 297.5861 0 0)
(1240.242 1.829896e-13 0 242.9289 0 0)
(905.9945 0 0 181.7555 0 0)
(564.7329 0 0 115.9186 0 0)
(263.9962 7.188526e-14 0 55.41293 0 0)
(94.95152 0 0 20.3676 0 0)
(36.63756 0 0 8.015528 0 0)
(17.27753 0 0 3.847784 0 0)
(9.182042 0 0 2.07773 0 0)
(4.527888 0 0 1.038917 0 0)
(2.489883 0 0 0.5778723 0 0)
(0.4026513 0 0 0.09423597 0 0)
(0.2522279 1.032596e-16 0 0.05930172 0 0)
(0.002136883 0 0 1.637194e-07 0 0)
(0.1105364 0 0 3.862824e-05 0 0)
(0.7075074 0 0 0.0005679828 0 0)
(2.450785 0 0 0.00342184 0 0)
(6.168941 0 0 0.01290272 0 0)
(12.68643 0 0 0.03623105 0 0)
(22.62962 1.277226e-33 0 0.08289673 0 0)
(36.3141 0 0 0.1632342 0 0)
(53.78678 6.555746e-18 0 0.2872266 0 0)
(74.99661 0 0 0.4644054 0 0)
(99.82742 0 0 0.7037171 0 0)
(135.8865 6.622101e-33 0 1.074497 0 0)
(187.4239 0 0 1.643977 0 0)
(249.2089 -4.45116e-32 0 2.407473 0 0)
(322.7636 0 0 3.418853 0 0)
(409.4275 1.527118e-16 0 4.742326 0 0)
(510.3465 0 0 6.453275 0 0)
(626.2918 -5.034532e-16 0 8.636681 0 0)
(757.506 0 0 11.38446 0 0)
(903.6018 7.804354e-16 0 14.79189 0 0)
(1063.533 0 0 18.95346 0 0)
(1235.641 -2.288268e-15 0 23.95865 0 0)
(1417.767 -2.715755e-15 0 29.88791 0 0)
(1607.396 0 0 36.80921 0 0)
(1801.824 3.68243e-15 0 44.7753 0 0)
(1998.298 4.21117e-15 0 53.82155 0 0)
(2194.154 9.522858e-15 0 63.96467 0 0)
(2386.91 0 0 75.20211 0 0)
(2574.335 0 0 87.5121 0 0)
(2754.491 0 0 100.8544 0 0)
(2925.747 0 0 115.1713 0 0)
(3086.776 -1.512945e-14 0 130.3897 0 0)
(3236.544 4.849086e-14 0 146.4226 0 0)
(3374.275 0 0 163.172 0 0)
(3499.434 -3.607553e-14 0 180.5308 0 0)
(3611.675 0 0 198.3853 0 0)
(3710.834 -3.917947e-14 0 216.6187 0 0)
(3796.876 0 0 235.1131 0 0)
(3869.872 0 0 253.7516 0 0)
(3929.988 0 0 272.4222 0 0)
(3977.44 0 0 291.0188 0 0)
(4012.482 0 0 309.4432 0 0)
(4035.389 0 0 327.606 0 0)
(4046.427 1.762918e-13 0 345.4266 0 0)
(4045.835 8.808487e-14 0 362.8311 0 0)
(4033.797 0 0 379.7477 0 0)
(4010.404 0 0 396.0991 0 0)
(3975.632 0 0 411.7917 0 0)
(3929.289 -1.697267e-13 0 426.6984 0 0)
(3870.976 -3.693275e-28 0 440.6383 0 0)
(3800.065 0 0 453.354 0 0)
(3715.65 0 0 464.4851 0 0)
(3616.574 0 0 473.5503 0 0)
(3501.464 0 0 479.9386 0 0)
(3368.81 0 0 482.9197 0 0)
(3217.103 4.749715e-29 0 481.6783 0 0)
(3045.002 0 0 475.3733 0 0)
(2851.473 0 0 463.2078 0 0)
(2635.92 8.766319e-29 0 444.5052 0 0)
(2398.236 0 0 418.7673 0 0)
(2138.812 0 0 385.7117 0 0)
(1858.478 0 0 345.2733 0 0)
(1558.456 4.712368e-13 0 297.5861 0 0)
(1240.242 1.829896e-13 0 242.9289 0 0)
(905.9945 0 0 181.7555 0 0)
(564.7329 0 0 115.9186 0 0)
(263.9962 7.188526e-14 0 55.41293 0 0)
(94.95152 0 0 20.3676 0 0)
(36.63756 0 0 8.015528 0 0)
(17.27753 0 0 3.847784 0 0)
(9.182042 0 0 2.07773 0 0)
(4.527888 0 0 1.038917 0 0)
(2.489883 0 0 0.5778723 0 0)
(0.4026513 0 0 0.09423597 0 0)
(0.2522279 1.032596e-16 0 0.05930172 0 0)
)
;
    }
    wall
    {
        type            calculated;
        value           nonuniform List<symmTensor> 2((5.127894e-07 0 0 3.333131e-07 0 0) (5.127887e-07 0 0 3.333126e-07 0 0));
    }
    frontAndBack
    {
        type            empty;
    }
    middle
    {
        type            symmetryPlane;
        value           nonuniform List<symmTensor> 2((0.2522281 0 0 0.05930175 0 0) (0.2522278 0 0 0.05930168 0 0));
    }
}


// ************************************************************************* //
