/*--------------------------------*- C++ -*----------------------------------*\
| =========                 |                                                 |
| \\      /  F ield         | foam-extend: Open Source CFD                    |
|  \\    /   O peration     | Version:     4.0                                |
|   \\  /    A nd           | Web:         http://www.foam-extend.org         |
|    \\/     M anipulation  |                                                 |
\*---------------------------------------------------------------------------*/
FoamFile
{
    version     2.0;
    format      ascii;
    class       volSymmTensorField;
    location    "100";
    object      NLTPlus;
}
// * * * * * * * * * * * * * * * * * * * * * * * * * * * * * * * * * * * * * //

dimensions      [0 2 -2 0 0 0 0];

internalField   nonuniform List<symmTensor> 
150
(
(5.409832e-06 0 0 4.144797e-10 0 0)
(5.409828e-06 0 0 4.144794e-10 0 0)
(0.000279839 0 0 9.779302e-08 0 0)
(0.0002798389 0 0 9.779302e-08 0 0)
(0.001791158 0 0 1.437931e-06 0 0)
(0.001791158 0 0 1.437931e-06 0 0)
(0.006204518 0 0 8.662883e-06 0 0)
(0.006204521 0 0 8.662889e-06 0 0)
(0.01561757 0 0 3.266511e-05 0 0)
(0.01561758 0 0 3.266513e-05 0 0)
(0.03211755 0 0 9.172414e-05 0 0)
(0.03211756 0 0 9.172419e-05 0 0)
(0.05729017 -5.292204e-21 0 0.0002098651 0 0)
(0.05729019 5.292206e-21 0 0.0002098652 0 0)
(0.09193441 0 0 0.000413251 0 0)
(0.09193443 0 0 0.0004132512 0 0)
(0.136169 0 0 0.0007271559 0 0)
(0.1361691 3.319366e-20 0 0.0007271562 0 0)
(0.1898648 0 0 0.00117571 0 0)
(0.1898649 0 0 0.00117571 0 0)
(0.2527276 0 0 0.001781562 0 0)
(0.2527277 0 0 0.001781563 0 0)
(0.3440164 2.138539e-19 0 0.002720246 0 0)
(0.3440165 -2.13854e-19 0 0.002720247 0 0)
(0.4744907 0 0 0.004161966 0 0)
(0.4744908 0 0 0.004161968 0 0)
(0.6309086 -4.33685e-19 0 0.006094868 0 0)
(0.6309088 4.336852e-19 0 0.006094871 0 0)
(0.8171228 0 0 0.008655323 0 0)
(0.817123 0 0 0.008655326 0 0)
(1.036525 7.732241e-19 0 0.01200588 0 0)
(1.036526 0 0 0.01200589 0 0)
(1.292016 0 0 0.0163374 0 0)
(1.292017 0 0 0.01633741 0 0)
(1.585549 -2.54913e-18 0 0.02186501 0 0)
(1.585549 0 0 0.02186502 0 0)
(1.917737 0 0 0.02882141 0 0)
(1.917737 0 0 0.02882142 0 0)
(2.287599 7.903142e-18 0 0.03744781 0 0)
(2.2876 -3.951572e-18 0 0.03744782 0 0)
(2.692488 0 0 0.04798345 0 0)
(2.692489 0 0 0.04798346 0 0)
(3.128205 -1.158616e-17 0 0.0606548 0 0)
(3.128206 0 0 0.06065483 0 0)
(3.589283 -1.375065e-17 0 0.07566558 0 0)
(3.589283 0 0 0.0756656 0 0)
(4.069358 0 0 0.09318787 0 0)
(4.069358 0 0 0.0931879 0 0)
(4.561578 1.864521e-17 0 0.1133552 0 0)
(4.561579 0 0 0.1133552 0 0)
(5.058982 2.132238e-17 0 0.1362571 0 0)
(5.058982 0 0 0.1362571 0 0)
(5.55482 4.8217e-17 0 0.1619359 0 0)
(5.55482 0 0 0.1619359 0 0)
(6.04281 0 0 0.1903851 0 0)
(6.04281 0 0 0.1903851 0 0)
(6.517304 0 0 0.2215496 0 0)
(6.517304 0 0 0.2215496 0 0)
(6.973396 0 0 0.2553275 0 0)
(6.973395 0 0 0.2553275 0 0)
(7.406954 -7.11224e-17 0 0.2915729 0 0)
(7.406954 7.112241e-17 0 0.2915729 0 0)
(7.814623 -7.660478e-17 0 0.3301004 0 0)
(7.814624 0 0 0.3301004 0 0)
(8.193781 2.455233e-16 0 0.3706902 0 0)
(8.193782 0 0 0.3706903 0 0)
(8.542469 0 0 0.4130937 0 0)
(8.542469 0 0 0.4130937 0 0)
(8.859326 -1.826609e-16 0 0.4570399 0 0)
(8.859326 0 0 0.4570399 0 0)
(9.143482 0 0 0.5022412 0 0)
(9.143482 0 0 0.5022412 0 0)
(9.394517 -3.967542e-16 0 0.5484019 0 0)
(9.394517 1.983771e-16 0 0.5484019 0 0)
(9.612345 0 0 0.595223 0 0)
(9.612345 0 0 0.5952229 0 0)
(9.797145 0 0 0.642409 0 0)
(9.797145 0 0 0.642409 0 0)
(9.949341 0 0 0.6896768 0 0)
(9.949334 0 0 0.6896763 0 0)
(10.06947 0 0 0.7367566 0 0)
(10.06947 0 0 0.7367565 0 0)
(10.15818 0 0 0.7834005 0 0)
(10.15818 0 0 0.7834004 0 0)
(10.21618 0 0 0.8293826 0 0)
(10.21617 0 0 0.8293819 0 0)
(10.24412 8.92617e-16 0 0.8744981 0 0)
(10.24412 0 0 0.8744973 0 0)
(10.24262 4.459994e-16 0 0.9185597 0 0)
(10.24262 0 0 0.9185595 0 0)
(10.21215 0 0 0.9613868 0 0)
(10.21214 0 0 0.9613865 0 0)
(10.15292 0 0 1.002783 0 0)
(10.15292 0 0 1.002782 0 0)
(10.06489 0 0 1.042511 0 0)
(10.06489 0 0 1.04251 0 0)
(9.947568 -8.593756e-16 0 1.080249 0 0)
(9.947566 0 0 1.080249 0 0)
(9.799941 -8.442961e-16 0 1.11554 0 0)
(9.79994 8.442958e-16 0 1.11554 0 0)
(9.620418 0 0 1.147732 0 0)
(9.620416 0 0 1.147731 0 0)
(9.406709 0 0 1.175912 0 0)
(9.406707 0 0 1.175911 0 0)
(9.155885 0 0 1.198862 0 0)
(9.155883 0 0 1.198861 0 0)
(8.864465 0 0 1.215035 0 0)
(8.864464 0 0 1.215034 0 0)
(8.528632 0 0 1.222582 0 0)
(8.528631 0 0 1.222581 0 0)
(8.144568 1.368683e-15 0 1.219439 0 0)
(8.144561 -1.368682e-15 0 1.219438 0 0)
(7.708867 0 0 1.203477 0 0)
(7.708867 0 0 1.203477 0 0)
(7.21892 0 0 1.172678 0 0)
(7.218919 0 0 1.172678 0 0)
(6.673216 1.087613e-15 0 1.12533 0 0)
(6.673215 -1.087612e-15 0 1.125329 0 0)
(6.071483 0 0 1.060171 0 0)
(6.071483 0 0 1.06017 0 0)
(5.414714 0 0 0.9764853 0 0)
(5.414713 0 0 0.9764851 0 0)
(4.705007 0 0 0.8741097 0 0)
(4.705007 0 0 0.8741095 0 0)
(3.945457 2.386009e-15 0 0.7533825 0 0)
(3.945457 0 0 0.7533826 0 0)
(3.139851 0 0 0.6150098 0 0)
(3.139853 9.265298e-16 0 0.6150102 0 0)
(2.293655 0 0 0.4601401 0 0)
(2.293659 0 0 0.460141 0 0)
(1.429699 0 0 0.293464 0 0)
(1.429707 0 0 0.2934656 0 0)
(0.6683412 0 0 0.1402851 0 0)
(0.6683485 3.63978e-16 0 0.1402866 0 0)
(0.2403824 0 0 0.05156328 0 0)
(0.2403848 0 0 0.05156379 0 0)
(0.09275314 0 0 0.02029244 0 0)
(0.09275348 0 0 0.02029251 0 0)
(0.04374056 0 0 0.009741222 0 0)
(0.04374059 0 0 0.009741229 0 0)
(0.02324567 0 0 0.005260074 0 0)
(0.02324568 0 0 0.005260076 0 0)
(0.01146301 0 0 0.00263017 0 0)
(0.01146301 0 0 0.00263017 0 0)
(0.006303502 0 0 0.001462968 0 0)
(0.006303501 0 0 0.001462968 0 0)
(0.00101937 0 0 0.000238572 0 0)
(0.001019371 0 0 0.0002385721 0 0)
(0.0006385521 5.228336e-19 0 0.000150131 0 0)
(0.0006385514 0 0 0.0001501308 0 0)
)
;

boundaryField
{
    leftandright
    {
        type            cyclic;
        value           nonuniform List<symmTensor> 
150
(
(5.40983e-06 0 0 4.144796e-10 0 0)
(0.000279839 0 0 9.779302e-08 0 0)
(0.001791158 0 0 1.437931e-06 0 0)
(0.00620452 0 0 8.662886e-06 0 0)
(0.01561757 0 0 3.266512e-05 0 0)
(0.03211755 0 0 9.172417e-05 0 0)
(0.05729018 2.910136e-36 0 0.0002098651 0 0)
(0.09193442 0 0 0.0004132511 0 0)
(0.1361691 1.659683e-20 0 0.0007271561 0 0)
(0.1898648 0 0 0.00117571 0 0)
(0.2527276 0 0 0.001781562 0 0)
(0.3440165 1.676481e-35 0 0.002720246 0 0)
(0.4744908 0 0 0.004161967 0 0)
(0.6309087 -1.126876e-34 0 0.006094869 0 0)
(0.8171229 0 0 0.008655325 0 0)
(1.036525 3.866122e-19 0 0.01200589 0 0)
(1.292017 0 0 0.01633741 0 0)
(1.585549 -1.274565e-18 0 0.02186501 0 0)
(1.917737 0 0 0.02882142 0 0)
(2.287599 1.975786e-18 0 0.03744782 0 0)
(2.692488 0 0 0.04798345 0 0)
(3.128205 -5.793082e-18 0 0.06065481 0 0)
(3.589283 -6.875328e-18 0 0.07566559 0 0)
(4.069358 0 0 0.09318788 0 0)
(4.561579 9.322609e-18 0 0.1133552 0 0)
(5.058982 1.066119e-17 0 0.1362571 0 0)
(5.55482 2.41085e-17 0 0.1619359 0 0)
(6.04281 0 0 0.1903851 0 0)
(6.517304 0 0 0.2215496 0 0)
(6.973395 0 0 0.2553275 0 0)
(7.406954 0 0 0.2915729 0 0)
(7.814624 -3.830239e-17 0 0.3301004 0 0)
(8.193782 1.227617e-16 0 0.3706903 0 0)
(8.542469 0 0 0.4130937 0 0)
(8.859326 -9.133044e-17 0 0.4570399 0 0)
(9.143482 0 0 0.5022412 0 0)
(9.394517 -9.918854e-17 0 0.5484019 0 0)
(9.612345 0 0 0.595223 0 0)
(9.797145 0 0 0.642409 0 0)
(9.949337 0 0 0.6896766 0 0)
(10.06947 0 0 0.7367566 0 0)
(10.15818 0 0 0.7834004 0 0)
(10.21617 0 0 0.8293823 0 0)
(10.24412 4.463083e-16 0 0.8744977 0 0)
(10.24262 2.229997e-16 0 0.9185596 0 0)
(10.21215 0 0 0.9613867 0 0)
(10.15292 0 0 1.002783 0 0)
(10.06489 0 0 1.042511 0 0)
(9.947567 -4.296877e-16 0 1.080249 0 0)
(9.79994 -9.350063e-31 0 1.11554 0 0)
(9.620417 0 0 1.147732 0 0)
(9.406708 0 0 1.175912 0 0)
(9.155884 0 0 1.198861 0 0)
(8.864465 0 0 1.215034 0 0)
(8.528632 0 0 1.222581 0 0)
(8.144565 1.202459e-31 0 1.219439 0 0)
(7.708867 0 0 1.203477 0 0)
(7.21892 0 0 1.172678 0 0)
(6.673216 2.219321e-31 0 1.12533 0 0)
(6.071483 0 0 1.06017 0 0)
(5.414713 0 0 0.9764852 0 0)
(4.705007 0 0 0.8741096 0 0)
(3.945457 1.193005e-15 0 0.7533825 0 0)
(3.139852 4.632648e-16 0 0.61501 0 0)
(2.293657 0 0 0.4601406 0 0)
(1.429703 0 0 0.2934648 0 0)
(0.6683448 1.81988e-16 0 0.1402859 0 0)
(0.2403836 0 0 0.05156354 0 0)
(0.09275331 0 0 0.02029248 0 0)
(0.04374057 0 0 0.009741226 0 0)
(0.02324568 0 0 0.005260075 0 0)
(0.01146301 0 0 0.00263017 0 0)
(0.006303502 0 0 0.001462968 0 0)
(0.00101937 0 0 0.0002385721 0 0)
(0.0006385518 2.614166e-19 0 0.0001501309 0 0)
(5.40983e-06 0 0 4.144796e-10 0 0)
(0.000279839 0 0 9.779302e-08 0 0)
(0.001791158 0 0 1.437931e-06 0 0)
(0.00620452 0 0 8.662886e-06 0 0)
(0.01561757 0 0 3.266512e-05 0 0)
(0.03211755 0 0 9.172417e-05 0 0)
(0.05729018 3.233484e-36 0 0.0002098651 0 0)
(0.09193442 0 0 0.0004132511 0 0)
(0.1361691 1.659683e-20 0 0.0007271561 0 0)
(0.1898648 0 0 0.00117571 0 0)
(0.2527276 0 0 0.001781562 0 0)
(0.3440165 1.676481e-35 0 0.002720246 0 0)
(0.4744908 0 0 0.004161967 0 0)
(0.6309087 -1.126876e-34 0 0.006094869 0 0)
(0.8171229 0 0 0.008655325 0 0)
(1.036525 3.866122e-19 0 0.01200589 0 0)
(1.292017 0 0 0.01633741 0 0)
(1.585549 -1.274565e-18 0 0.02186501 0 0)
(1.917737 0 0 0.02882142 0 0)
(2.287599 1.975786e-18 0 0.03744782 0 0)
(2.692488 0 0 0.04798345 0 0)
(3.128205 -5.793082e-18 0 0.06065481 0 0)
(3.589283 -6.875328e-18 0 0.07566559 0 0)
(4.069358 0 0 0.09318788 0 0)
(4.561579 9.322609e-18 0 0.1133552 0 0)
(5.058982 1.066119e-17 0 0.1362571 0 0)
(5.55482 2.41085e-17 0 0.1619359 0 0)
(6.04281 0 0 0.1903851 0 0)
(6.517304 0 0 0.2215496 0 0)
(6.973395 0 0 0.2553275 0 0)
(7.406954 0 0 0.2915729 0 0)
(7.814624 -3.830239e-17 0 0.3301004 0 0)
(8.193782 1.227617e-16 0 0.3706903 0 0)
(8.542469 0 0 0.4130937 0 0)
(8.859326 -9.133044e-17 0 0.4570399 0 0)
(9.143482 0 0 0.5022412 0 0)
(9.394517 -9.918854e-17 0 0.5484019 0 0)
(9.612345 0 0 0.595223 0 0)
(9.797145 0 0 0.642409 0 0)
(9.949337 0 0 0.6896766 0 0)
(10.06947 0 0 0.7367566 0 0)
(10.15818 0 0 0.7834004 0 0)
(10.21617 0 0 0.8293823 0 0)
(10.24412 4.463083e-16 0 0.8744977 0 0)
(10.24262 2.229997e-16 0 0.9185596 0 0)
(10.21215 0 0 0.9613867 0 0)
(10.15292 0 0 1.002783 0 0)
(10.06489 0 0 1.042511 0 0)
(9.947567 -4.296877e-16 0 1.080249 0 0)
(9.79994 -9.350063e-31 0 1.11554 0 0)
(9.620417 0 0 1.147732 0 0)
(9.406708 0 0 1.175912 0 0)
(9.155884 0 0 1.198861 0 0)
(8.864465 0 0 1.215034 0 0)
(8.528632 0 0 1.222581 0 0)
(8.144565 1.202459e-31 0 1.219439 0 0)
(7.708867 0 0 1.203477 0 0)
(7.21892 0 0 1.172678 0 0)
(6.673216 2.219321e-31 0 1.12533 0 0)
(6.071483 0 0 1.06017 0 0)
(5.414713 0 0 0.9764852 0 0)
(4.705007 0 0 0.8741096 0 0)
(3.945457 1.193005e-15 0 0.7533825 0 0)
(3.139852 4.632648e-16 0 0.61501 0 0)
(2.293657 0 0 0.4601406 0 0)
(1.429703 0 0 0.2934648 0 0)
(0.6683448 1.81988e-16 0 0.1402859 0 0)
(0.2403836 0 0 0.05156354 0 0)
(0.09275331 0 0 0.02029248 0 0)
(0.04374057 0 0 0.009741226 0 0)
(0.02324568 0 0 0.005260075 0 0)
(0.01146301 0 0 0.00263017 0 0)
(0.006303502 0 0 0.001462968 0 0)
(0.00101937 0 0 0.0002385721 0 0)
(0.0006385518 2.614166e-19 0 0.0001501309 0 0)
)
;
    }
    wall
    {
        type            calculated;
        value           nonuniform List<symmTensor> 2((1.298201e-09 0 0 8.438306e-10 0 0) (1.298199e-09 0 0 8.438295e-10 0 0));
    }
    frontAndBack
    {
        type            empty;
    }
    middle
    {
        type            symmetryPlane;
        value           nonuniform List<symmTensor> 2((0.0006385521 0 0 0.000150131 0 0) (0.0006385514 0 0 0.0001501308 0 0));
    }
}


// ************************************************************************* //
