/*--------------------------------*- C++ -*----------------------------------*\
| =========                 |                                                 |
| \\      /  F ield         | foam-extend: Open Source CFD                    |
|  \\    /   O peration     | Version:     4.0                                |
|   \\  /    A nd           | Web:         http://www.foam-extend.org         |
|    \\/     M anipulation  |                                                 |
\*---------------------------------------------------------------------------*/
FoamFile
{
    version     2.0;
    format      ascii;
    class       volScalarField;
    location    "100";
    object      nut;
}
// * * * * * * * * * * * * * * * * * * * * * * * * * * * * * * * * * * * * * //

dimensions      [0 2 -1 0 0 0 0];

internalField   nonuniform List<scalar> 
150
(
4.358897e-09
4.358898e-09
2.256943e-07
2.256944e-07
1.44567e-06
1.445671e-06
5.011884e-06
5.011885e-06
1.263128e-05
1.263129e-05
2.602403e-05
2.602404e-05
4.652359e-05
4.65236e-05
7.479653e-05
7.479655e-05
0.0001108196
0.0001108196
0.000154089
0.000154089
0.0002039004
0.0002039005
0.000275765
0.0002757651
0.0003780084
0.0003780085
0.0004985491
0.0004985493
0.0006385607
0.0006385609
0.0007994494
0.0007994495
0.0009827599
0.0009827602
0.001190111
0.001190111
0.001423154
0.001423154
0.001683541
0.001683541
0.001972908
0.001972908
0.002292845
0.002292846
0.002644879
0.002644879
0.003030443
0.003030444
0.003450856
0.003450857
0.003907294
0.003907295
0.004400767
0.004400768
0.004932101
0.004932101
0.005501917
0.005501918
0.006110627
0.006110628
0.006758427
0.006758427
0.007445303
0.007445303
0.00817105
0.008171051
0.008935303
0.008935303
0.009737579
0.009737579
0.01057735
0.01057735
0.01145411
0.01145411
0.01236753
0.01236753
0.01331756
0.01331756
0.01430467
0.01430467
0.01533001
0.01533001
0.01639575
0.01639575
0.01750537
0.01750537
0.01866402
0.01866402
0.01987896
0.01987895
0.02115992
0.02115992
0.02251954
0.02251953
0.0239736
0.02397359
0.02554116
0.02554116
0.02724436
0.02724436
0.02910774
0.02910774
0.03115697
0.03115696
0.03341691
0.0334169
0.03590893
0.03590892
0.03864776
0.03864776
0.04163828
0.04163827
0.04487271
0.04487271
0.04832912
0.04832912
0.05197158
0.05197157
0.0557524
0.0557524
0.05961635
0.05961635
0.06350614
0.06350614
0.06736859
0.06736858
0.07116063
0.07116062
0.07485485
0.07485484
0.07844387
0.07844386
0.08193724
0.08193724
0.08533002
0.08533002
0.08853399
0.08853399
0.09158234
0.09158234
0.09450164
0.09450163
0.09725167
0.09725167
0.0997031
0.0997031
0.1016294
0.1016293
0.1027358
0.1027358
)
;

boundaryField
{
    leftandright
    {
        type            cyclic;
        value           nonuniform List<scalar> 
150
(
4.358898e-09
2.256943e-07
1.44567e-06
5.011884e-06
1.263128e-05
2.602403e-05
4.65236e-05
7.479654e-05
0.0001108196
0.000154089
0.0002039005
0.0002757651
0.0003780085
0.0004985492
0.0006385608
0.0007994494
0.0009827601
0.001190111
0.001423154
0.001683541
0.001972908
0.002292845
0.002644879
0.003030443
0.003450856
0.003907294
0.004400768
0.004932101
0.005501918
0.006110628
0.006758427
0.007445303
0.00817105
0.008935303
0.009737579
0.01057735
0.01145411
0.01236753
0.01331756
0.01430467
0.01533001
0.01639575
0.01750537
0.01866402
0.01987895
0.02115992
0.02251953
0.02397359
0.02554116
0.02724436
0.02910774
0.03115697
0.03341691
0.03590893
0.03864776
0.04163827
0.04487271
0.04832912
0.05197157
0.0557524
0.05961635
0.06350614
0.06736859
0.07116062
0.07485485
0.07844386
0.08193724
0.08533002
0.08853399
0.09158234
0.09450164
0.09725167
0.0997031
0.1016293
0.1027358
4.358898e-09
2.256943e-07
1.44567e-06
5.011884e-06
1.263128e-05
2.602403e-05
4.65236e-05
7.479654e-05
0.0001108196
0.000154089
0.0002039005
0.0002757651
0.0003780085
0.0004985492
0.0006385608
0.0007994494
0.0009827601
0.001190111
0.001423154
0.001683541
0.001972908
0.002292845
0.002644879
0.003030443
0.003450856
0.003907294
0.004400768
0.004932101
0.005501918
0.006110628
0.006758427
0.007445303
0.00817105
0.008935303
0.009737579
0.01057735
0.01145411
0.01236753
0.01331756
0.01430467
0.01533001
0.01639575
0.01750537
0.01866402
0.01987895
0.02115992
0.02251953
0.02397359
0.02554116
0.02724436
0.02910774
0.03115697
0.03341691
0.03590893
0.03864776
0.04163827
0.04487271
0.04832912
0.05197157
0.0557524
0.05961635
0.06350614
0.06736859
0.07116062
0.07485485
0.07844386
0.08193724
0.08533002
0.08853399
0.09158234
0.09450164
0.09725167
0.0997031
0.1016293
0.1027358
)
;
    }
    wall
    {
        type            nutLowReWallFunction;
        Cmu             0.09;
        kappa           0.41;
        E               9.8;
        value           nonuniform List<scalar> 2(1.045294e-12 1.045294e-12);
    }
    frontAndBack
    {
        type            empty;
    }
    middle
    {
        type            symmetryPlane;
        value           nonuniform List<scalar> 2(0.1027358 0.1027358);
    }
}


// ************************************************************************* //
