/*--------------------------------*- C++ -*----------------------------------*\
| =========                 |                                                 |
| \\      /  F ield         | foam-extend: Open Source CFD                    |
|  \\    /   O peration     | Version:     4.0                                |
|   \\  /    A nd           | Web:         http://www.foam-extend.org         |
|    \\/     M anipulation  |                                                 |
\*---------------------------------------------------------------------------*/
FoamFile
{
    version     2.0;
    format      ascii;
    class       volScalarField;
    location    "100";
    object      p;
}
// * * * * * * * * * * * * * * * * * * * * * * * * * * * * * * * * * * * * * //

dimensions      [0 2 -2 0 0 0 0];

internalField   nonuniform List<scalar> 
150
(
-4.575655e-09
-0.04999997
-2.373918e-05
-0.0500237
-0.0001259116
-0.05012588
-0.0004102298
-0.05041022
-0.001002829
-0.05100283
-0.002041191
-0.0520412
-0.003663374
-0.05366339
-0.005999089
-0.0559991
-0.009164057
-0.05916407
-0.01325733
-0.06325733
-0.01835454
-0.06835455
-0.02449226
-0.07449227
-0.03166176
-0.08166176
-0.03982341
-0.08982342
-0.04891728
-0.09891729
-0.0588579
-0.1088579
-0.06953054
-0.1195305
-0.0807949
-0.1307949
-0.09249163
-0.1424916
-0.1044498
-0.1544498
-0.1164945
-0.1664945
-0.1284541
-0.1784541
-0.140166
-0.1901661
-0.1514816
-0.2014816
-0.1622688
-0.2122688
-0.1724141
-0.2224141
-0.1818229
-0.231823
-0.1904196
-0.2404196
-0.1981459
-0.2481459
-0.2049601
-0.2549601
-0.2108353
-0.2608353
-0.2157576
-0.2657576
-0.219725
-0.269725
-0.2227457
-0.2727457
-0.224837
-0.274837
-0.2260241
-0.276024
-0.2263394
-0.2763394
-0.2258222
-0.2758222
-0.2245177
-0.2745177
-0.2224775
-0.2724775
-0.219759
-0.269759
-0.2164266
-0.2664266
-0.2125513
-0.2625513
-0.2082124
-0.2582124
-0.2034984
-0.2534984
-0.1985086
-0.2485085
-0.1933548
-0.2433548
-0.1881639
-0.2381639
-0.1830804
-0.2330804
-0.1782685
-0.2282685
-0.173914
-0.223914
-0.1702252
-0.2202252
-0.1674313
-0.2174313
-0.1657773
-0.2157773
-0.1655149
-0.2155149
-0.1668889
-0.2168889
-0.1701192
-0.2201192
-0.1753806
-0.2253806
-0.1827845
-0.2327845
-0.1923635
-0.2423635
-0.2040631
-0.2540631
-0.2177398
-0.2677398
-0.2331649
-0.2831649
-0.2500406
-0.3000407
-0.2679928
-0.3179928
-0.2860856
-0.3360856
-0.3010292
-0.3510292
-0.3081963
-0.3581963
-0.3077844
-0.3577844
-0.3025365
-0.3525366
-0.2984194
-0.3484194
-0.2864219
-0.3364219
-0.297099
-0.347099
-0.245075
-0.295075
-0.3649423
-0.4149423
)
;

boundaryField
{
    leftandright
    {
        type            fan;
        patchType       cyclic;
        f               1(-0.1);
        value           nonuniform List<scalar> 
150
(
0.02500001
0.02497628
0.0248741
0.02458978
0.02399717
0.0229588
0.02133662
0.01900091
0.01583594
0.01174267
0.006645459
0.0005077334
-0.00666176
-0.01482342
-0.02391729
-0.03385791
-0.04453054
-0.05579491
-0.06749164
-0.07944979
-0.0914945
-0.1034541
-0.1151661
-0.1264816
-0.1372688
-0.1474141
-0.1568229
-0.1654196
-0.1731459
-0.1799601
-0.1858353
-0.1907576
-0.194725
-0.1977457
-0.199837
-0.2010241
-0.2013394
-0.2008222
-0.1995177
-0.1974775
-0.194759
-0.1914266
-0.1875513
-0.1832124
-0.1784984
-0.1735086
-0.1683548
-0.1631639
-0.1580804
-0.1532685
-0.148914
-0.1452252
-0.1424313
-0.1407773
-0.1405149
-0.1418889
-0.1451192
-0.1503806
-0.1577845
-0.1673635
-0.1790631
-0.1927398
-0.2081649
-0.2250407
-0.2429928
-0.2610856
-0.2760292
-0.2831963
-0.2827844
-0.2775365
-0.2734194
-0.2614219
-0.272099
-0.220075
-0.3399423
-0.07499999
-0.07502372
-0.0751259
-0.07541022
-0.07600283
-0.0770412
-0.07866338
-0.08099909
-0.08416406
-0.08825733
-0.09335454
-0.09949227
-0.1066618
-0.1148234
-0.1239173
-0.1338579
-0.1445305
-0.1557949
-0.1674916
-0.1794498
-0.1914945
-0.2034541
-0.2151661
-0.2264816
-0.2372688
-0.2474141
-0.2568229
-0.2654196
-0.2731459
-0.2799601
-0.2858353
-0.2907576
-0.294725
-0.2977457
-0.299837
-0.3010241
-0.3013394
-0.3008222
-0.2995177
-0.2974775
-0.294759
-0.2914266
-0.2875513
-0.2832124
-0.2784984
-0.2735086
-0.2683548
-0.2631639
-0.2580804
-0.2532685
-0.248914
-0.2452252
-0.2424313
-0.2407773
-0.2405149
-0.2418889
-0.2451192
-0.2503806
-0.2577845
-0.2673635
-0.2790631
-0.2927398
-0.3081649
-0.3250407
-0.3429928
-0.3610856
-0.3760292
-0.3831963
-0.3827844
-0.3775365
-0.3734194
-0.3614219
-0.372099
-0.320075
-0.4399423
)
;
    }
    wall
    {
        type            zeroGradient;
    }
    frontAndBack
    {
        type            empty;
    }
    middle
    {
        type            symmetryPlane;
        value           nonuniform List<scalar> 2(-0.3649423 -0.4149423);
    }
}


// ************************************************************************* //
