/*--------------------------------*- C++ -*----------------------------------*\
| =========                 |                                                 |
| \\      /  F ield         | foam-extend: Open Source CFD                    |
|  \\    /   O peration     | Version:     4.0                                |
|   \\  /    A nd           | Web:         http://www.foam-extend.org         |
|    \\/     M anipulation  |                                                 |
\*---------------------------------------------------------------------------*/
FoamFile
{
    version     2.0;
    format      ascii;
    class       surfaceScalarField;
    location    "100";
    object      phi;
}
// * * * * * * * * * * * * * * * * * * * * * * * * * * * * * * * * * * * * * //

dimensions      [0 3 -1 0 0 0 0];

internalField   nonuniform List<scalar> 
223
(
3.240332e-05
3.712373e-12
-1.752357e-14
0.000103824
3.877974e-12
-5.657432e-14
0.0001860764
4.048318e-12
-9.80632e-14
0.0002803818
4.178327e-12
-1.284747e-13
0.0003880144
4.269549e-12
-1.481251e-13
0.0005102737
4.333868e-12
-1.614826e-13
0.0006484662
4.385511e-12
-1.730879e-13
0.0008039046
4.434158e-12
-1.862641e-13
0.0009779236
4.482519e-12
-2.029847e-13
0.001171905
4.536926e-12
-2.143049e-13
0.0013873
4.609877e-12
-2.015347e-13
0.00162512
4.694872e-12
-1.661414e-13
0.001885506
4.767444e-12
-1.273332e-13
0.002168579
4.811693e-12
-9.066726e-14
0.002474791
4.818785e-12
-5.249769e-14
0.002804501
4.773883e-12
-7.550989e-15
0.003158005
4.666454e-12
4.8769e-14
0.003535555
4.505484e-12
1.091905e-13
0.003937397
4.298689e-12
1.761305e-13
0.004363807
4.047313e-12
2.658591e-13
0.004815129
3.768158e-12
3.841024e-13
0.005291806
3.477207e-12
5.391426e-13
0.005794413
3.178322e-12
7.494879e-13
0.006323677
2.881022e-12
1.022723e-12
0.006880496
2.602058e-12
1.351257e-12
0.00746595
2.379168e-12
1.69692e-12
0.008081305
2.254126e-12
2.007483e-12
0.008728014
2.189261e-12
2.300913e-12
0.009407721
2.09669e-12
2.638131e-12
0.01012225
1.987651e-12
2.976697e-12
0.01087362
1.964765e-12
3.182362e-12
0.01166402
2.023041e-12
3.232294e-12
0.01249581
2.091346e-12
3.177792e-12
0.01337154
2.167826e-12
3.012418e-12
0.01429394
2.27361e-12
2.720618e-12
0.01526591
2.404064e-12
2.32698e-12
0.01629051
2.219449e-12
2.203924e-12
0.01737102
1.557197e-12
2.555525e-12
0.01851087
9.711674e-13
2.872337e-12
0.01971367
7.663522e-13
2.889582e-12
0.02098322
7.472808e-13
2.831388e-12
0.02232352
6.739965e-13
2.948637e-12
0.02373872
7.681398e-13
3.009161e-12
0.02523315
1.276979e-12
2.733466e-12
0.0268113
1.801074e-12
2.470933e-12
0.02847783
2.0292e-12
2.472727e-12
0.03023754
2.060199e-12
2.580826e-12
0.03209534
2.184086e-12
2.459299e-12
0.03405629
2.289182e-12
2.198748e-12
0.03612558
2.039039e-12
2.147548e-12
0.03830853
1.723144e-12
2.063374e-12
0.04061061
1.749705e-12
1.614582e-12
0.04303752
1.885085e-12
1.12662e-12
0.04559523
1.662753e-12
1.152063e-12
0.04829003
1.344256e-12
1.48656e-12
0.05112867
1.289622e-12
1.779388e-12
0.05411838
1.251457e-12
2.231407e-12
0.05726697
1.405426e-12
2.571685e-12
0.06058286
1.738844e-12
2.69054e-12
0.0640751
1.814872e-12
2.905599e-12
0.06775338
1.610665e-12
3.152873e-12
0.071628
1.083571e-12
3.440139e-12
0.07570977
1.48669e-13
3.875916e-12
0.08001003
-7.235416e-13
4.067571e-12
0.08454045
-4.546895e-13
3.058861e-12
0.08931267
1.448274e-12
4.95406e-13
0.09433647
3.23972e-12
-1.793373e-12
0.09961622
2.967008e-12
-1.909729e-12
0.1051522
1.482179e-12
-9.277143e-13
0.1109457
2.972476e-13
-5.861004e-13
0.117
-5.390544e-13
-8.356439e-13
0.1233177
-5.192349e-13
-8.495315e-13
0.1299002
-6.029675e-13
-5.832832e-13
0.1367461
-5.125552e-13
-4.82383e-13
0.1438508
)
;

boundaryField
{
    leftandright
    {
        type            cyclic;
        value           nonuniform List<scalar> 
150
(
-3.240332e-05
-0.000103824
-0.0001860764
-0.0002803818
-0.0003880144
-0.0005102737
-0.0006484662
-0.0008039046
-0.0009779236
-0.001171905
-0.0013873
-0.00162512
-0.001885506
-0.002168579
-0.002474791
-0.002804501
-0.003158005
-0.003535555
-0.003937397
-0.004363807
-0.004815129
-0.005291806
-0.005794413
-0.006323677
-0.006880496
-0.00746595
-0.008081305
-0.008728014
-0.009407721
-0.01012225
-0.01087362
-0.01166402
-0.01249581
-0.01337154
-0.01429394
-0.01526591
-0.01629051
-0.01737102
-0.01851087
-0.01971367
-0.02098322
-0.02232352
-0.02373872
-0.02523315
-0.0268113
-0.02847783
-0.03023754
-0.03209534
-0.03405629
-0.03612558
-0.03830853
-0.04061061
-0.04303752
-0.04559523
-0.04829003
-0.05112867
-0.05411838
-0.05726697
-0.06058286
-0.0640751
-0.06775338
-0.071628
-0.07570977
-0.08001003
-0.08454045
-0.08931267
-0.09433647
-0.09961622
-0.1051522
-0.1109457
-0.117
-0.1233177
-0.1299002
-0.1367461
-0.1438508
3.240332e-05
0.000103824
0.0001860764
0.0002803818
0.0003880144
0.0005102737
0.0006484662
0.0008039046
0.0009779236
0.001171905
0.0013873
0.00162512
0.001885506
0.002168579
0.002474791
0.002804501
0.003158005
0.003535555
0.003937397
0.004363807
0.004815129
0.005291806
0.005794413
0.006323677
0.006880496
0.00746595
0.008081305
0.008728014
0.009407721
0.01012225
0.01087362
0.01166402
0.01249581
0.01337154
0.01429394
0.01526591
0.01629051
0.01737102
0.01851087
0.01971367
0.02098322
0.02232352
0.02373872
0.02523315
0.0268113
0.02847783
0.03023754
0.03209534
0.03405629
0.03612558
0.03830853
0.04061061
0.04303752
0.04559523
0.04829003
0.05112867
0.05411838
0.05726697
0.06058286
0.0640751
0.06775338
0.071628
0.07570977
0.08001003
0.08454045
0.08931267
0.09433647
0.09961622
0.1051522
0.1109457
0.117
0.1233177
0.1299002
0.1367461
0.1438508
)
;
    }
    wall
    {
        type            calculated;
        value           uniform 0;
    }
    frontAndBack
    {
        type            empty;
    }
    middle
    {
        type            symmetryPlane;
        value           uniform 0;
    }
}


// ************************************************************************* //
