/*--------------------------------*- C++ -*----------------------------------*\
| =========                 |                                                 |
| \\      /  F ield         | foam-extend: Open Source CFD                    |
|  \\    /   O peration     | Version:     4.0                                |
|   \\  /    A nd           | Web:         http://www.foam-extend.org         |
|    \\/     M anipulation  |                                                 |
\*---------------------------------------------------------------------------*/
FoamFile
{
    version     2.0;
    format      ascii;
    class       volScalarField;
    location    "100";
    object      QR;
}
// * * * * * * * * * * * * * * * * * * * * * * * * * * * * * * * * * * * * * //

dimensions      [0 0 -1 0 0 0 0];

internalField   nonuniform List<scalar> 
150
(
417.6076
417.6071
416.9619
416.9617
416.0678
416.0678
414.6846
414.6847
412.5181
412.5182
409.2855
409.2856
404.7868
404.7868
398.9505
398.9506
391.8339
391.8339
383.5831
383.5831
373.8033
373.8033
361.3287
361.3287
345.9198
345.9198
328.6693
328.6693
310.3883
310.3883
291.4007
291.4007
272.0291
272.0291
252.586
252.586
233.3637
233.3637
214.6245
214.6245
196.5919
196.5919
179.4452
179.4452
163.3172
163.3172
148.2946
148.2946
134.4223
134.4223
121.7085
121.7085
110.1317
110.1317
99.64758
99.64758
90.19544
90.19544
81.70415
81.70415
74.09687
74.09687
67.2949
67.2949
61.22054
61.22054
55.79911
55.79911
50.96029
50.96029
46.63889
46.63889
42.77518
42.77518
39.31495
39.31495
36.20936
36.20936
33.41458
33.41458
30.8915
30.8915
28.60525
28.60525
26.52486
26.52486
24.62292
24.62292
22.87522
22.87522
21.26062
21.26062
19.76084
19.76084
18.36042
18.36042
17.04669
17.04669
15.80976
15.80976
14.6425
14.6425
13.5404
13.5404
12.50124
12.50124
11.52463
11.52463
10.61131
10.61131
9.76238
9.76238
8.978563
8.978563
8.259611
8.259611
7.603954
7.603954
7.008597
7.008597
6.46923
6.46923
5.980484
5.980484
5.536235
5.536235
5.129806
5.129806
4.752877
4.752876
4.388817
4.388817
4.004051
4.004051
3.569322
3.569322
3.093002
3.093002
2.60432
2.60432
2.120233
2.120233
1.644297
1.644297
1.175999
1.175999
0.7128758
0.7128757
0.2412968
0.2412968
)
;

boundaryField
{
    leftandright
    {
        type            cyclic;
        value           nonuniform List<scalar> 
150
(
417.6073
416.9618
416.0678
414.6846
412.5181
409.2856
404.7868
398.9505
391.8339
383.5831
373.8033
361.3287
345.9198
328.6693
310.3883
291.4007
272.0291
252.586
233.3637
214.6245
196.5919
179.4452
163.3172
148.2946
134.4223
121.7085
110.1317
99.64758
90.19544
81.70415
74.09687
67.2949
61.22054
55.79911
50.96029
46.63889
42.77518
39.31495
36.20936
33.41458
30.8915
28.60525
26.52486
24.62292
22.87522
21.26062
19.76084
18.36042
17.04669
15.80976
14.6425
13.5404
12.50124
11.52463
10.61131
9.76238
8.978563
8.259611
7.603954
7.008597
6.46923
5.980484
5.536235
5.129806
4.752876
4.388817
4.004051
3.569322
3.093002
2.60432
2.120233
1.644297
1.175999
0.7128757
0.2412968
417.6073
416.9618
416.0678
414.6846
412.5181
409.2856
404.7868
398.9505
391.8339
383.5831
373.8033
361.3287
345.9198
328.6693
310.3883
291.4007
272.0291
252.586
233.3637
214.6245
196.5919
179.4452
163.3172
148.2946
134.4223
121.7085
110.1317
99.64758
90.19544
81.70415
74.09687
67.2949
61.22054
55.79911
50.96029
46.63889
42.77518
39.31495
36.20936
33.41458
30.8915
28.60525
26.52486
24.62292
22.87522
21.26062
19.76084
18.36042
17.04669
15.80976
14.6425
13.5404
12.50124
11.52463
10.61131
9.76238
8.978563
8.259611
7.603954
7.008597
6.46923
5.980484
5.536235
5.129806
4.752876
4.388817
4.004051
3.569322
3.093002
2.60432
2.120233
1.644297
1.175999
0.7128757
0.2412968
)
;
    }
    wall
    {
        type            calculated;
        value           nonuniform List<scalar> 2(417.8933 417.8927);
    }
    frontAndBack
    {
        type            empty;
    }
    middle
    {
        type            symmetryPlane;
        value           nonuniform List<scalar> 2(0.3952833 0.3952833);
    }
}


// ************************************************************************* //
