/*--------------------------------*- C++ -*----------------------------------*\
| =========                 |                                                 |
| \\      /  F ield         | foam-extend: Open Source CFD                    |
|  \\    /   O peration     | Version:     4.0                                |
|   \\  /    A nd           | Web:         http://www.foam-extend.org         |
|    \\/     M anipulation  |                                                 |
\*---------------------------------------------------------------------------*/
FoamFile
{
    version     2.0;
    format      ascii;
    class       volSymmTensorField;
    location    "100";
    object      RStress;
}
// * * * * * * * * * * * * * * * * * * * * * * * * * * * * * * * * * * * * * //

dimensions      [0 2 -2 0 0 0 0];

internalField   nonuniform List<symmTensor> 
150
(
(0.006771662 -1.820308e-06 0 4.048333e-07 0 9.738222e-05)
(0.006771666 -1.820307e-06 0 4.048334e-07 0 9.737927e-05)
(0.07300894 -9.410593e-05 0 1.991302e-05 0 0.001050304)
(0.07300896 -9.410592e-05 0 1.991303e-05 0 0.001050294)
(0.1933057 -0.0006014968 0 0.0001220166 0 0.004162744)
(0.1933057 -0.000601497 0 0.0001220166 0 0.004162745)
(0.3694261 -0.002078351 0 0.0004084791 0 0.01049648)
(0.3694261 -0.002078352 0 0.0004084793 0 0.01049648)
(0.6032949 -0.005210632 0 0.001006034 0 0.0209917)
(0.603295 -0.005210635 0 0.001006035 0 0.0209917)
(0.8963841 -0.01065126 0 0.002053868 0 0.03646848)
(0.8963842 -0.01065126 0 0.002053869 0 0.03646849)
(1.249023 -0.01883213 0 0.003692307 0 0.05758922)
(1.249023 -0.01883214 0 0.003692309 0 0.05758923)
(1.659835 -0.02984011 0 0.006053684 0 0.08483456)
(1.659835 -0.02984012 0 0.006053686 0 0.08483458)
(2.125558 -0.04342289 0 0.009256306 0 0.1184933)
(2.125559 -0.0434229 0 0.009256308 0 0.1184933)
(2.641322 -0.05910594 0 0.01340166 0 0.1586741)
(2.641323 -0.05910596 0 0.01340166 0 0.1586741)
(3.201296 -0.07621865 0 0.01857408 0 0.2053389)
(3.201296 -0.07621867 0 0.01857408 0 0.205339)
(3.797957 -0.0996418 0 0.02482327 0 0.2581979)
(3.797958 -0.09964183 0 0.02482328 0 0.258198)
(4.415463 -0.1307606 0 0.03214423 0 0.3163886)
(4.415464 -0.1307606 0 0.03214424 0 0.3163886)
(5.031599 -0.1638578 0 0.04050564 0 0.378657)
(5.031599 -0.1638578 0 0.04050565 0 0.3786571)
(5.626223 -0.1982017 0 0.04986471 0 0.443717)
(5.626224 -0.1982018 0 0.04986473 0 0.443717)
(6.180695 -0.2329601 0 0.06015064 0 0.5101637)
(6.180695 -0.2329602 0 0.06015066 0 0.5101638)
(6.679008 -0.2673393 0 0.07126648 0 0.5765513)
(6.679009 -0.2673394 0 0.0712665 0 0.5765513)
(7.108649 -0.3006054 0 0.08309257 0 0.6414727)
(7.10865 -0.3006055 0 0.08309258 0 0.6414727)
(7.461086 -0.3321124 0 0.09549218 0 0.7036349)
(7.461086 -0.3321125 0 0.0954922 0 0.7036349)
(7.731877 -0.3613292 0 0.1083181 0 0.7619196)
(7.731877 -0.3613292 0 0.1083181 0 0.7619197)
(7.920436 -0.3878576 0 0.1214191 0 0.8154253)
(7.920437 -0.3878577 0 0.1214191 0 0.8154254)
(8.029514 -0.4114401 0 0.134646 0 0.8634866)
(8.029514 -0.4114401 0 0.1346461 0 0.8634867)
(8.064503 -0.4319541 0 0.1478569 0 0.905675)
(8.064503 -0.4319542 0 0.1478569 0 0.9056751)
(8.032675 -0.4493984 0 0.1609202 0 0.9417819)
(8.032675 -0.4493984 0 0.1609202 0 0.9417819)
(7.942436 -0.463872 0 0.1737174 0 0.97179)
(7.942437 -0.4638721 0 0.1737175 0 0.9717901)
(7.802669 -0.4755509 0 0.1861443 0 0.9958394)
(7.802669 -0.475551 0 0.1861444 0 0.9958394)
(7.622195 -0.4846641 0 0.1981109 0 1.01419)
(7.622195 -0.4846641 0 0.198111 0 1.01419)
(7.40938 -0.4914719 0 0.2095411 0 1.027187)
(7.40938 -0.491472 0 0.2095411 0 1.027187)
(7.171867 -0.4962479 0 0.2203715 0 1.035229)
(7.171868 -0.4962479 0 0.2203715 0 1.035229)
(6.916431 -0.4992636 0 0.2305507 0 1.038743)
(6.916431 -0.4992637 0 0.2305507 0 1.038743)
(6.64891 -0.5007783 0 0.2400374 0 1.038163)
(6.648911 -0.5007783 0 0.2400374 0 1.038163)
(6.374224 -0.5010309 0 0.2487998 0 1.033914)
(6.374224 -0.5010309 0 0.2487998 0 1.033914)
(6.096419 -0.5002361 0 0.2568141 0 1.026401)
(6.096419 -0.5002361 0 0.2568141 0 1.026401)
(5.818755 -0.4985819 0 0.2640639 0 1.016006)
(5.818755 -0.498582 0 0.2640639 0 1.016006)
(5.543797 -0.4962299 0 0.2705397 0 1.003081)
(5.543797 -0.4962299 0 0.2705397 0 1.003081)
(5.273516 -0.4933157 0 0.276238 0 0.9879455)
(5.273516 -0.4933157 0 0.276238 0 0.9879455)
(5.009384 -0.4899516 0 0.2811619 0 0.9708936)
(5.009384 -0.4899516 0 0.2811619 0 0.9708936)
(4.752464 -0.4862287 0 0.2853206 0 0.9521901)
(4.752464 -0.4862287 0 0.2853206 0 0.9521901)
(4.503489 -0.4822204 0 0.28873 0 0.9320765)
(4.503489 -0.4822204 0 0.28873 0 0.9320765)
(4.262934 -0.4779846 0 0.291413 0 0.9107741)
(4.262934 -0.4779846 0 0.2914129 0 0.9107741)
(4.031081 -0.4735671 0 0.2934002 0 0.8884882)
(4.031081 -0.473567 0 0.2934002 0 0.8884882)
(3.808069 -0.4690046 0 0.2947308 0 0.8654124)
(3.808069 -0.4690045 0 0.2947308 0 0.8654123)
(3.593943 -0.4643275 0 0.2954533 0 0.8417329)
(3.593943 -0.4643275 0 0.2954532 0 0.8417329)
(3.388697 -0.4595626 0 0.2956261 0 0.8176333)
(3.388697 -0.4595625 0 0.2956261 0 0.8176333)
(3.192306 -0.4547354 0 0.2953188 0 0.7932988)
(3.192306 -0.4547354 0 0.2953188 0 0.7932987)
(3.004761 -0.4498729 0 0.2946122 0 0.7689196)
(3.004761 -0.4498729 0 0.2946121 0 0.7689196)
(2.826093 -0.445005 0 0.2935982 0 0.7446949)
(2.826093 -0.4450049 0 0.2935982 0 0.7446948)
(2.656388 -0.4401653 0 0.2923799 0 0.7208338)
(2.656388 -0.4401652 0 0.2923799 0 0.7208338)
(2.495804 -0.4353922 0 0.291069 0 0.6975568)
(2.495804 -0.4353921 0 0.291069 0 0.6975567)
(2.344567 -0.4307268 0 0.2897838 0 0.6750926)
(2.344567 -0.4307268 0 0.2897837 0 0.6750926)
(2.202961 -0.4262102 0 0.2886446 0 0.6536742)
(2.202961 -0.4262101 0 0.2886445 0 0.6536741)
(2.071298 -0.4218778 0 0.2877686 0 0.6335304)
(2.071298 -0.4218778 0 0.2877685 0 0.6335304)
(1.949881 -0.4177529 0 0.2872632 0 0.6148753)
(1.949881 -0.4177528 0 0.2872631 0 0.6148753)
(1.838953 -0.4138372 0 0.2872192 0 0.5978952)
(1.838953 -0.4138372 0 0.2872191 0 0.5978952)
(1.738641 -0.4101034 0 0.2877041 0 0.5827348)
(1.738641 -0.4101034 0 0.287704 0 0.5827348)
(1.648905 -0.4064887 0 0.2887571 0 0.5694851)
(1.648905 -0.4064886 0 0.2887571 0 0.5694851)
(1.569502 -0.4028924 0 0.2903857 0 0.5581726)
(1.569502 -0.4028924 0 0.2903857 0 0.5581726)
(1.499962 -0.3991797 0 0.2925637 0 0.548753)
(1.499962 -0.3991797 0 0.2925637 0 0.5487529)
(1.439583 -0.3951895 0 0.295231 0 0.5411073)
(1.439583 -0.3951895 0 0.2952309 0 0.5411073)
(1.387439 -0.3907461 0 0.298294 0 0.5350416)
(1.387439 -0.3907461 0 0.298294 0 0.5350416)
(1.342394 -0.3856719 0 0.3016263 0 0.5302869)
(1.342394 -0.3856719 0 0.3016263 0 0.5302869)
(1.303117 -0.3797975 0 0.3050673 0 0.526499)
(1.303117 -0.3797975 0 0.3050673 0 0.5264989)
(1.268085 -0.3729683 0 0.3084218 0 0.5232558)
(1.268085 -0.3729683 0 0.3084218 0 0.5232558)
(1.235589 -0.3650402 0 0.311467 0 0.5200521)
(1.235589 -0.3650402 0 0.311467 0 0.5200521)
(1.203721 -0.3557758 0 0.3139363 0 0.5162896)
(1.203721 -0.3557758 0 0.3139363 0 0.5162896)
(1.170402 -0.3442758 0 0.3153342 0 0.511269)
(1.170402 -0.3442758 0 0.3153342 0 0.511269)
(1.133603 -0.3280809 0 0.3151969 0 0.5042256)
(1.133603 -0.3280809 0 0.3151968 0 0.5042256)
(1.092279 -0.3045703 0 0.313508 0 0.4945592)
(1.092279 -0.3045703 0 0.313508 0 0.4945592)
(1.047767 -0.2738358 0 0.3095174 0 0.4822306)
(1.047767 -0.2738358 0 0.3095174 0 0.4822306)
(1.002148 -0.2385096 0 0.3043578 0 0.4681657)
(1.002148 -0.2385096 0 0.3043578 0 0.4681657)
(0.9579101 -0.2003643 0 0.2964931 0 0.4535843)
(0.9579101 -0.2003643 0 0.2964931 0 0.4535843)
(0.9176613 -0.1598993 0 0.293617 0 0.4397229)
(0.9176613 -0.1598993 0 0.293617 0 0.4397229)
(0.8839409 -0.1171479 0 0.2781255 0 0.4277642)
(0.8839409 -0.1171479 0 0.2781255 0 0.4277642)
(0.8591794 -0.07202919 0 0.2916067 0 0.4188131)
(0.8591794 -0.07202919 0 0.2916067 0 0.4188131)
(0.8456694 -0.02443633 0 0.2721893 0 0.4138746)
(0.8456694 -0.02443633 0 0.2721893 0 0.4138746)
)
;

boundaryField
{
    leftandright
    {
        type            cyclic;
        value           nonuniform List<symmTensor> 
150
(
(0.006771664 -1.820308e-06 0 4.048333e-07 0 9.738074e-05)
(0.07300895 -9.410592e-05 0 1.991303e-05 0 0.001050299)
(0.1933057 -0.0006014969 0 0.0001220166 0 0.004162744)
(0.3694261 -0.002078351 0 0.0004084792 0 0.01049648)
(0.603295 -0.005210634 0 0.001006035 0 0.0209917)
(0.8963842 -0.01065126 0 0.002053868 0 0.03646848)
(1.249023 -0.01883214 0 0.003692308 0 0.05758923)
(1.659835 -0.02984012 0 0.006053685 0 0.08483457)
(2.125559 -0.04342289 0 0.009256307 0 0.1184933)
(2.641322 -0.05910595 0 0.01340166 0 0.1586741)
(3.201296 -0.07621866 0 0.01857408 0 0.205339)
(3.797957 -0.09964182 0 0.02482328 0 0.2581979)
(4.415463 -0.1307606 0 0.03214423 0 0.3163886)
(5.031599 -0.1638578 0 0.04050564 0 0.3786571)
(5.626224 -0.1982018 0 0.04986472 0 0.443717)
(6.180695 -0.2329601 0 0.06015065 0 0.5101637)
(6.679008 -0.2673393 0 0.07126649 0 0.5765513)
(7.10865 -0.3006054 0 0.08309257 0 0.6414727)
(7.461086 -0.3321125 0 0.09549219 0 0.7036349)
(7.731877 -0.3613292 0 0.1083181 0 0.7619197)
(7.920437 -0.3878577 0 0.1214191 0 0.8154253)
(8.029514 -0.4114401 0 0.1346461 0 0.8634866)
(8.064503 -0.4319541 0 0.1478569 0 0.9056751)
(8.032675 -0.4493984 0 0.1609202 0 0.9417819)
(7.942436 -0.463872 0 0.1737174 0 0.9717901)
(7.802669 -0.4755509 0 0.1861443 0 0.9958394)
(7.622195 -0.4846641 0 0.1981109 0 1.01419)
(7.40938 -0.4914719 0 0.2095411 0 1.027187)
(7.171868 -0.4962479 0 0.2203715 0 1.035229)
(6.916431 -0.4992636 0 0.2305507 0 1.038743)
(6.64891 -0.5007783 0 0.2400374 0 1.038163)
(6.374224 -0.5010309 0 0.2487998 0 1.033914)
(6.096419 -0.5002361 0 0.2568141 0 1.026401)
(5.818755 -0.498582 0 0.2640639 0 1.016006)
(5.543797 -0.4962299 0 0.2705397 0 1.003081)
(5.273516 -0.4933157 0 0.276238 0 0.9879455)
(5.009384 -0.4899516 0 0.2811619 0 0.9708936)
(4.752464 -0.4862287 0 0.2853206 0 0.9521901)
(4.503489 -0.4822204 0 0.28873 0 0.9320765)
(4.262934 -0.4779846 0 0.291413 0 0.9107741)
(4.031081 -0.4735671 0 0.2934002 0 0.8884882)
(3.808069 -0.4690046 0 0.2947308 0 0.8654124)
(3.593943 -0.4643275 0 0.2954532 0 0.8417329)
(3.388697 -0.4595626 0 0.2956261 0 0.8176333)
(3.192306 -0.4547354 0 0.2953188 0 0.7932988)
(3.004761 -0.4498729 0 0.2946121 0 0.7689196)
(2.826093 -0.4450049 0 0.2935982 0 0.7446948)
(2.656388 -0.4401653 0 0.2923799 0 0.7208338)
(2.495804 -0.4353921 0 0.291069 0 0.6975568)
(2.344567 -0.4307268 0 0.2897838 0 0.6750926)
(2.202961 -0.4262102 0 0.2886445 0 0.6536742)
(2.071298 -0.4218778 0 0.2877685 0 0.6335304)
(1.949881 -0.4177529 0 0.2872632 0 0.6148753)
(1.838953 -0.4138372 0 0.2872191 0 0.5978952)
(1.738641 -0.4101034 0 0.287704 0 0.5827348)
(1.648905 -0.4064887 0 0.2887571 0 0.5694851)
(1.569502 -0.4028924 0 0.2903857 0 0.5581726)
(1.499962 -0.3991797 0 0.2925637 0 0.548753)
(1.439583 -0.3951895 0 0.2952309 0 0.5411073)
(1.387439 -0.3907461 0 0.298294 0 0.5350416)
(1.342394 -0.3856719 0 0.3016263 0 0.5302869)
(1.303117 -0.3797975 0 0.3050673 0 0.526499)
(1.268085 -0.3729683 0 0.3084218 0 0.5232558)
(1.235589 -0.3650402 0 0.311467 0 0.5200521)
(1.203721 -0.3557758 0 0.3139363 0 0.5162896)
(1.170402 -0.3442758 0 0.3153342 0 0.511269)
(1.133603 -0.3280809 0 0.3151969 0 0.5042256)
(1.092279 -0.3045703 0 0.313508 0 0.4945592)
(1.047767 -0.2738358 0 0.3095174 0 0.4822306)
(1.002148 -0.2385096 0 0.3043578 0 0.4681657)
(0.9579101 -0.2003643 0 0.2964931 0 0.4535843)
(0.9176613 -0.1598993 0 0.293617 0 0.4397229)
(0.8839409 -0.1171479 0 0.2781255 0 0.4277642)
(0.8591794 -0.07202919 0 0.2916067 0 0.4188131)
(0.8456694 -0.02443633 0 0.2721893 0 0.4138746)
(0.006771664 -1.820308e-06 0 4.048333e-07 0 9.738074e-05)
(0.07300895 -9.410592e-05 0 1.991303e-05 0 0.001050299)
(0.1933057 -0.0006014969 0 0.0001220166 0 0.004162744)
(0.3694261 -0.002078351 0 0.0004084792 0 0.01049648)
(0.603295 -0.005210634 0 0.001006035 0 0.0209917)
(0.8963842 -0.01065126 0 0.002053868 0 0.03646848)
(1.249023 -0.01883214 0 0.003692308 0 0.05758923)
(1.659835 -0.02984012 0 0.006053685 0 0.08483457)
(2.125559 -0.04342289 0 0.009256307 0 0.1184933)
(2.641322 -0.05910595 0 0.01340166 0 0.1586741)
(3.201296 -0.07621866 0 0.01857408 0 0.205339)
(3.797957 -0.09964182 0 0.02482328 0 0.2581979)
(4.415463 -0.1307606 0 0.03214423 0 0.3163886)
(5.031599 -0.1638578 0 0.04050564 0 0.3786571)
(5.626224 -0.1982018 0 0.04986472 0 0.443717)
(6.180695 -0.2329601 0 0.06015065 0 0.5101637)
(6.679008 -0.2673393 0 0.07126649 0 0.5765513)
(7.10865 -0.3006054 0 0.08309257 0 0.6414727)
(7.461086 -0.3321125 0 0.09549219 0 0.7036349)
(7.731877 -0.3613292 0 0.1083181 0 0.7619197)
(7.920437 -0.3878577 0 0.1214191 0 0.8154253)
(8.029514 -0.4114401 0 0.1346461 0 0.8634866)
(8.064503 -0.4319541 0 0.1478569 0 0.9056751)
(8.032675 -0.4493984 0 0.1609202 0 0.9417819)
(7.942436 -0.463872 0 0.1737174 0 0.9717901)
(7.802669 -0.4755509 0 0.1861443 0 0.9958394)
(7.622195 -0.4846641 0 0.1981109 0 1.01419)
(7.40938 -0.4914719 0 0.2095411 0 1.027187)
(7.171868 -0.4962479 0 0.2203715 0 1.035229)
(6.916431 -0.4992636 0 0.2305507 0 1.038743)
(6.64891 -0.5007783 0 0.2400374 0 1.038163)
(6.374224 -0.5010309 0 0.2487998 0 1.033914)
(6.096419 -0.5002361 0 0.2568141 0 1.026401)
(5.818755 -0.498582 0 0.2640639 0 1.016006)
(5.543797 -0.4962299 0 0.2705397 0 1.003081)
(5.273516 -0.4933157 0 0.276238 0 0.9879455)
(5.009384 -0.4899516 0 0.2811619 0 0.9708936)
(4.752464 -0.4862287 0 0.2853206 0 0.9521901)
(4.503489 -0.4822204 0 0.28873 0 0.9320765)
(4.262934 -0.4779846 0 0.291413 0 0.9107741)
(4.031081 -0.4735671 0 0.2934002 0 0.8884882)
(3.808069 -0.4690046 0 0.2947308 0 0.8654124)
(3.593943 -0.4643275 0 0.2954532 0 0.8417329)
(3.388697 -0.4595626 0 0.2956261 0 0.8176333)
(3.192306 -0.4547354 0 0.2953188 0 0.7932988)
(3.004761 -0.4498729 0 0.2946121 0 0.7689196)
(2.826093 -0.4450049 0 0.2935982 0 0.7446948)
(2.656388 -0.4401653 0 0.2923799 0 0.7208338)
(2.495804 -0.4353921 0 0.291069 0 0.6975568)
(2.344567 -0.4307268 0 0.2897838 0 0.6750926)
(2.202961 -0.4262102 0 0.2886445 0 0.6536742)
(2.071298 -0.4218778 0 0.2877685 0 0.6335304)
(1.949881 -0.4177529 0 0.2872632 0 0.6148753)
(1.838953 -0.4138372 0 0.2872191 0 0.5978952)
(1.738641 -0.4101034 0 0.287704 0 0.5827348)
(1.648905 -0.4064887 0 0.2887571 0 0.5694851)
(1.569502 -0.4028924 0 0.2903857 0 0.5581726)
(1.499962 -0.3991797 0 0.2925637 0 0.548753)
(1.439583 -0.3951895 0 0.2952309 0 0.5411073)
(1.387439 -0.3907461 0 0.298294 0 0.5350416)
(1.342394 -0.3856719 0 0.3016263 0 0.5302869)
(1.303117 -0.3797975 0 0.3050673 0 0.526499)
(1.268085 -0.3729683 0 0.3084218 0 0.5232558)
(1.235589 -0.3650402 0 0.311467 0 0.5200521)
(1.203721 -0.3557758 0 0.3139363 0 0.5162896)
(1.170402 -0.3442758 0 0.3153342 0 0.511269)
(1.133603 -0.3280809 0 0.3151969 0 0.5042256)
(1.092279 -0.3045703 0 0.313508 0 0.4945592)
(1.047767 -0.2738358 0 0.3095174 0 0.4822306)
(1.002148 -0.2385096 0 0.3043578 0 0.4681657)
(0.9579101 -0.2003643 0 0.2964931 0 0.4535843)
(0.9176613 -0.1598993 0 0.293617 0 0.4397229)
(0.8839409 -0.1171479 0 0.2781255 0 0.4277642)
(0.8591794 -0.07202919 0 0.2916067 0 0.4188131)
(0.8456694 -0.02443633 0 0.2721893 0 0.4138746)
)
;
    }
    wall
    {
        type            calculated;
        value           nonuniform List<symmTensor> 2((3.333333e-11 -4.368215e-10 0 9.999461e-11 0 6.666667e-11) (3.333333e-11 -4.368209e-10 0 9.999461e-11 0 6.666667e-11));
    }
    frontAndBack
    {
        type            empty;
    }
    middle
    {
        type            symmetryPlane;
        value           nonuniform List<symmTensor> 2((0.8456694 0 0 0.3564438 0 0.4138746) (0.8456694 0 0 0.3564437 0 0.4138746));
    }
}


// ************************************************************************* //
