/*--------------------------------*- C++ -*----------------------------------*\
| =========                 |                                                 |
| \\      /  F ield         | foam-extend: Open Source CFD                    |
|  \\    /   O peration     | Version:     4.0                                |
|   \\  /    A nd           | Web:         http://www.foam-extend.org         |
|    \\/     M anipulation  |                                                 |
\*---------------------------------------------------------------------------*/
FoamFile
{
    version     2.0;
    format      ascii;
    class       volSymmTensorField;
    location    "100";
    object      tauP;
}
// * * * * * * * * * * * * * * * * * * * * * * * * * * * * * * * * * * * * * //

dimensions      [0 2 -2 0 0 0 0];

internalField   nonuniform List<symmTensor> 
150
(
(4.483928 0.04766877 0 7.909058e-06 0 3.861896e-07)
(4.484205 0.0476704 0 7.941563e-06 0 4.268244e-07)
(4.482651 0.04768895 0 8.766662e-06 0 2.753898e-07)
(4.48274 0.04768948 0 8.813964e-06 0 3.072875e-07)
(4.48034 0.04774226 0 1.09155e-05 0 1.19247e-07)
(4.480354 0.04774234 0 1.094152e-05 0 1.269857e-07)
(4.477278 0.04784399 0 1.492749e-05 0 -1.112217e-07)
(4.477279 0.04784399 0 1.493631e-05 0 -1.100889e-07)
(4.4735 0.04801294 0 2.173101e-05 0 -4.481502e-07)
(4.473496 0.04801292 0 2.172607e-05 0 -4.484133e-07)
(4.46931 0.0482783 0 3.272374e-05 0 -9.25052e-07)
(4.469304 0.04827826 0 3.271206e-05 0 -9.254956e-07)
(4.465905 0.04868651 0 4.987587e-05 0 -1.518398e-06)
(4.465895 0.04868645 0 4.986174e-05 0 -1.519224e-06)
(4.465687 0.04930549 0 7.576988e-05 0 -2.116827e-06)
(4.46568 0.04930545 0 7.575654e-05 0 -2.117229e-06)
(4.472124 0.05022569 0 0.0001136972 0 -2.52385e-06)
(4.472118 0.05022565 0 0.000113685 0 -2.524419e-06)
(4.488699 0.05155531 0 0.0001679366 0 -2.538832e-06)
(4.488693 0.05155527 0 0.0001679258 0 -2.539613e-06)
(4.516169 0.05339836 0 0.000244305 0 -2.215989e-06)
(4.51616 0.0533983 0 0.000244295 0 -2.217323e-06)
(4.55189 0.05584533 0 0.0003518522 0 -1.922462e-06)
(4.551882 0.05584527 0 0.0003518435 0 -1.923802e-06)
(4.594873 0.05900539 0 0.0005010671 0 -1.823604e-06)
(4.594869 0.05900536 0 0.0005010602 0 -1.824543e-06)
(4.648435 0.06302024 0 0.0007015792 0 -1.643424e-06)
(4.648432 0.06302022 0 0.0007015733 0 -1.644327e-06)
(4.715467 0.06802823 0 0.0009662591 0 -1.138802e-06)
(4.715465 0.06802821 0 0.0009662539 0 -1.139667e-06)
(4.794653 0.07412095 0 0.001310639 0 -3.900951e-07)
(4.79465 0.07412095 0 0.001310635 0 -3.909292e-07)
(4.881992 0.0813514 0 0.001752991 0 4.299395e-07)
(4.881984 0.08135132 0 0.001752984 0 4.285237e-07)
(4.971946 0.08973289 0 0.002314081 0 1.16463e-06)
(4.971938 0.08973281 0 0.002314076 0 1.163021e-06)
(5.058348 0.09923442 0 0.003016582 0 1.716439e-06)
(5.05834 0.09923433 0 0.003016579 0 1.715041e-06)
(5.135111 0.1097768 0 0.003884178 0 2.046523e-06)
(5.135103 0.1097767 0 0.003884171 0 2.045143e-06)
(5.196881 0.1212345 0 0.004940513 0 2.163949e-06)
(5.196873 0.1212344 0 0.004940508 0 2.162778e-06)
(5.239468 0.1334418 0 0.006208093 0 2.107094e-06)
(5.239459 0.1334417 0 0.006208087 0 2.105481e-06)
(5.260153 0.1462046 0 0.007707255 0 1.928223e-06)
(5.260144 0.1462045 0 0.007707247 0 1.92681e-06)
(5.2577 0.1593129 0 0.00945527 0 1.679089e-06)
(5.257691 0.1593127 0 0.009455258 0 1.677443e-06)
(5.232233 0.1725532 0 0.01146563 0 1.402514e-06)
(5.232224 0.1725531 0 0.01146562 0 1.400865e-06)
(5.184958 0.1857194 0 0.0137475 0 1.127553e-06)
(5.184949 0.1857191 0 0.01374748 0 1.12636e-06)
(5.117901 0.1986209 0 0.0163054 0 8.75457e-07)
(5.117897 0.1986208 0 0.0163054 0 8.746791e-07)
(5.03357 0.2110885 0 0.01913904 0 6.557983e-07)
(5.033566 0.2110884 0 0.01913903 0 6.547967e-07)
(4.934695 0.222977 0 0.02224327 0 4.709919e-07)
(4.934691 0.2229769 0 0.02224325 0 4.70223e-07)
(4.824047 0.2341671 0 0.02560832 0 3.217126e-07)
(4.824039 0.2341668 0 0.02560829 0 3.20342e-07)
(4.704248 0.2445639 0 0.02921994 0 2.03595e-07)
(4.704245 0.2445639 0 0.02921993 0 2.028694e-07)
(4.577703 0.2540971 0 0.03306002 0 1.136604e-07)
(4.5777 0.254097 0 0.03306001 0 1.12964e-07)
(4.44652 0.2627171 0 0.03710691 0 4.70641e-08)
(4.446517 0.262717 0 0.03710689 0 4.639855e-08)
(4.312496 0.2703934 0 0.04133603 0 5.918784e-10)
(4.312494 0.2703933 0 0.04133602 0 -2.520714e-10)
(4.177099 0.2771111 0 0.04572049 0 -3.067749e-08)
(4.177097 0.277111 0 0.04572048 0 -3.148203e-08)
(4.041493 0.2828677 0 0.05023174 0 -4.982626e-08)
(4.041492 0.2828676 0 0.05023172 0 -5.059006e-08)
(3.906573 0.2876718 0 0.05484024 0 -5.898263e-08)
(3.906571 0.2876717 0 0.05484023 0 -5.950535e-08)
(3.772968 0.2915384 0 0.05951622 0 -6.037866e-08)
(3.772963 0.2915382 0 0.05951613 0 -6.143705e-08)
(3.641082 0.2944868 0 0.06423002 0 -5.72396e-08)
(3.641081 0.2944868 0 0.06422999 0 -5.77121e-08)
(3.511138 0.2965402 0 0.06895327 0 -5.004751e-08)
(3.511137 0.29654 0 0.06895322 0 -5.031674e-08)
(3.383188 0.2977207 0 0.07365891 0 -4.037484e-08)
(3.383187 0.2977207 0 0.0736589 0 -4.081492e-08)
(3.257154 0.2980497 0 0.07832201 0 -2.86283e-08)
(3.25715 0.2980495 0 0.07832196 0 -2.958677e-08)
(3.132832 0.2975441 0 0.08291972 0 -1.698748e-08)
(3.132834 0.297544 0 0.08291969 0 -1.71197e-08)
(3.009946 0.2962159 0 0.0874314 0 -4.381806e-09)
(3.009945 0.2962157 0 0.08743139 0 -4.833952e-09)
(2.888138 0.2940697 0 0.09183812 0 8.337052e-09)
(2.888137 0.2940697 0 0.0918381 0 7.696484e-09)
(2.767004 0.2911008 0 0.09612133 0 2.009681e-08)
(2.767003 0.2911008 0 0.0961213 0 1.944174e-08)
(2.646129 0.2872941 0 0.1002612 0 3.125905e-08)
(2.646128 0.2872941 0 0.1002612 0 3.059627e-08)
(2.525089 0.2826233 0 0.1042337 0 4.159855e-08)
(2.525088 0.2826233 0 0.1042337 0 4.093126e-08)
(2.403501 0.2770503 0 0.1080063 0 5.111904e-08)
(2.403501 0.2770503 0 0.1080063 0 5.012311e-08)
(2.281034 0.2705257 0 0.111533 0 5.898816e-08)
(2.281034 0.2705257 0 0.1115329 0 5.816029e-08)
(2.15745 0.2629935 0 0.1147482 0 6.580794e-08)
(2.157449 0.2629935 0 0.1147482 0 6.516204e-08)
(2.032617 0.2543939 0 0.117561 0 7.235279e-08)
(2.032616 0.2543939 0 0.117561 0 7.156948e-08)
(1.90651 0.2446713 0 0.1198495 0 7.79276e-08)
(1.906509 0.2446713 0 0.1198494 0 7.717781e-08)
(1.779216 0.2337836 0 0.1214594 0 8.293422e-08)
(1.779215 0.2337836 0 0.1214594 0 8.22108e-08)
(1.650902 0.2217109 0 0.1222067 0 8.776718e-08)
(1.650902 0.2217109 0 0.1222066 0 8.723049e-08)
(1.521784 0.2084638 0 0.1218856 0 9.313565e-08)
(1.521784 0.2084636 0 0.1218855 0 9.264107e-08)
(1.392074 0.194088 0 0.120284 0 9.912327e-08)
(1.392074 0.194088 0 0.1202839 0 9.852697e-08)
(1.261944 0.178663 0 0.1172005 0 1.055901e-07)
(1.261944 0.178663 0 0.1172004 0 1.05181e-07)
(1.131499 0.1622956 0 0.1124639 0 1.127129e-07)
(1.131499 0.1622956 0 0.1124639 0 1.126169e-07)
(1.000759 0.1451087 0 0.105948 0 1.210315e-07)
(1.000759 0.1451087 0 0.105948 0 1.207432e-07)
(0.8696693 0.1272297 0 0.0975808 0 1.303492e-07)
(0.8696694 0.1272297 0 0.0975808 0 1.303516e-07)
(0.738114 0.1087783 0 0.08734518 0 1.412959e-07)
(0.7381143 0.1087783 0 0.08734518 0 1.413522e-07)
(0.6059679 0.08986097 0 0.07527404 0 1.556754e-07)
(0.6059683 0.089861 0 0.07527406 0 1.556562e-07)
(0.4731049 0.07056354 0 0.06143475 0 1.786025e-07)
(0.4731054 0.0705636 0 0.06143479 0 1.783863e-07)
(0.3396405 0.05098712 0 0.04594776 0 2.071022e-07)
(0.3396415 0.05098725 0 0.04594787 0 2.068967e-07)
(0.2084116 0.0316231 0 0.02933466 0 1.707962e-07)
(0.2084132 0.03162329 0 0.02933483 0 1.703353e-07)
(0.09652809 0.01499451 0 0.01413403 0 -5.812648e-08)
(0.09652948 0.01499468 0 0.0141342 0 -5.851437e-08)
(0.03472755 0.005699529 0 0.005259759 0 -1.549252e-07)
(0.034728 0.005699586 0 0.005259815 0 -1.551408e-07)
(0.01327366 0.002429382 0 0.002067317 0 -6.726106e-08)
(0.01327374 0.002429391 0 0.002067327 0 -6.695878e-08)
(0.006165277 0.001314251 0 0.0009825838 0 -2.051198e-08)
(0.006165291 0.001314252 0 0.0009825851 0 -1.958237e-08)
(0.003228226 0.0008258489 0 0.0005327463 0 -5.26727e-09)
(0.003228229 0.0008258493 0 0.0005327476 0 -4.001735e-09)
(0.001593091 0.0005229174 0 0.0002568245 0 -2.200434e-09)
(0.001593089 0.0005229174 0 0.0002568242 0 -3.083427e-09)
(0.0008394368 0.0003498912 0 0.0001659573 0 1.599379e-10)
(0.0008394372 0.0003498912 0 0.0001659554 0 -2.424839e-09)
(0.0001720793 0.0001774674 0 -1.190905e-06 0 -2.186262e-09)
(0.0001720797 0.0001774675 0 -1.190504e-06 0 -1.326863e-09)
(7.24434e-05 6.237968e-05 0 2.957225e-05 0 4.828958e-10)
(7.244274e-05 6.237967e-05 0 2.95707e-05 0 -8.625756e-10)
)
;

boundaryField
{
    leftandright
    {
        type            cyclic;
        value           nonuniform List<symmTensor> 
150
(
(4.484067 0.04766959 0 7.92531e-06 0 4.065066e-07)
(4.482695 0.04768921 0 8.790313e-06 0 2.913386e-07)
(4.480347 0.0477423 0 1.092851e-05 0 1.231164e-07)
(4.477279 0.04784399 0 1.49319e-05 0 -1.106553e-07)
(4.473498 0.04801293 0 2.172854e-05 0 -4.482818e-07)
(4.469307 0.04827828 0 3.27179e-05 0 -9.252738e-07)
(4.4659 0.04868648 0 4.98688e-05 0 -1.518811e-06)
(4.465683 0.04930547 0 7.576321e-05 0 -2.117028e-06)
(4.472121 0.05022567 0 0.0001136911 0 -2.524135e-06)
(4.488696 0.05155529 0 0.0001679312 0 -2.539222e-06)
(4.516165 0.05339833 0 0.0002443 0 -2.216656e-06)
(4.551886 0.0558453 0 0.0003518479 0 -1.923132e-06)
(4.594871 0.05900538 0 0.0005010636 0 -1.824074e-06)
(4.648434 0.06302023 0 0.0007015763 0 -1.643875e-06)
(4.715466 0.06802822 0 0.0009662565 0 -1.139234e-06)
(4.794651 0.07412095 0 0.001310637 0 -3.905122e-07)
(4.881988 0.08135136 0 0.001752987 0 4.292316e-07)
(4.971942 0.08973285 0 0.002314079 0 1.163825e-06)
(5.058344 0.09923438 0 0.003016581 0 1.71574e-06)
(5.135107 0.1097768 0 0.003884174 0 2.045833e-06)
(5.196877 0.1212344 0 0.004940511 0 2.163364e-06)
(5.239464 0.1334417 0 0.00620809 0 2.106287e-06)
(5.260149 0.1462046 0 0.007707251 0 1.927517e-06)
(5.257696 0.1593128 0 0.009455264 0 1.678266e-06)
(5.232228 0.1725532 0 0.01146563 0 1.401689e-06)
(5.184954 0.1857193 0 0.01374749 0 1.126956e-06)
(5.117899 0.1986208 0 0.0163054 0 8.750681e-07)
(5.033568 0.2110885 0 0.01913904 0 6.552975e-07)
(4.934693 0.222977 0 0.02224326 0 4.706075e-07)
(4.824043 0.2341669 0 0.0256083 0 3.210273e-07)
(4.704246 0.2445639 0 0.02921993 0 2.032322e-07)
(4.577701 0.254097 0 0.03306001 0 1.133122e-07)
(4.446519 0.262717 0 0.0371069 0 4.673132e-08)
(4.312495 0.2703934 0 0.04133602 0 1.699035e-10)
(4.177098 0.2771111 0 0.04572049 0 -3.107976e-08)
(4.041493 0.2828677 0 0.05023173 0 -5.020816e-08)
(3.906572 0.2876718 0 0.05484024 0 -5.924399e-08)
(3.772966 0.2915383 0 0.05951617 0 -6.090786e-08)
(3.641081 0.2944868 0 0.06423 0 -5.747585e-08)
(3.511138 0.2965401 0 0.06895325 0 -5.018213e-08)
(3.383187 0.2977207 0 0.0736589 0 -4.059488e-08)
(3.257152 0.2980496 0 0.07832199 0 -2.910754e-08)
(3.132833 0.297544 0 0.0829197 0 -1.705359e-08)
(3.009945 0.2962158 0 0.08743139 0 -4.607879e-09)
(2.888137 0.2940697 0 0.09183811 0 8.016768e-09)
(2.767004 0.2911008 0 0.09612132 0 1.976928e-08)
(2.646128 0.2872941 0 0.1002612 0 3.092766e-08)
(2.525089 0.2826233 0 0.1042337 0 4.126491e-08)
(2.403501 0.2770503 0 0.1080063 0 5.062107e-08)
(2.281034 0.2705257 0 0.111533 0 5.857422e-08)
(2.15745 0.2629935 0 0.1147482 0 6.548499e-08)
(2.032617 0.2543939 0 0.117561 0 7.196113e-08)
(1.90651 0.2446713 0 0.1198495 0 7.755271e-08)
(1.779216 0.2337836 0 0.1214594 0 8.257251e-08)
(1.650902 0.2217109 0 0.1222066 0 8.749884e-08)
(1.521784 0.2084637 0 0.1218856 0 9.288836e-08)
(1.392074 0.194088 0 0.120284 0 9.882512e-08)
(1.261944 0.178663 0 0.1172005 0 1.053855e-07)
(1.131499 0.1622956 0 0.1124639 0 1.126649e-07)
(1.000759 0.1451087 0 0.105948 0 1.208873e-07)
(0.8696693 0.1272297 0 0.0975808 0 1.303504e-07)
(0.7381142 0.1087783 0 0.08734518 0 1.41324e-07)
(0.6059681 0.08986099 0 0.07527405 0 1.556658e-07)
(0.4731052 0.07056357 0 0.06143477 0 1.784944e-07)
(0.339641 0.05098718 0 0.04594781 0 2.069994e-07)
(0.2084124 0.03162319 0 0.02933474 0 1.705658e-07)
(0.09652878 0.0149946 0 0.01413412 0 -5.832043e-08)
(0.03472777 0.005699557 0 0.005259787 0 -1.55033e-07)
(0.0132737 0.002429386 0 0.002067322 0 -6.710992e-08)
(0.006165284 0.001314251 0 0.0009825845 0 -2.004717e-08)
(0.003228228 0.0008258491 0 0.0005327469 0 -4.634503e-09)
(0.00159309 0.0005229174 0 0.0002568244 0 -2.64193e-09)
(0.000839437 0.0003498912 0 0.0001659563 0 -1.132451e-09)
(0.0001720795 0.0001774675 0 -1.190704e-06 0 -1.756562e-09)
(7.244307e-05 6.237968e-05 0 2.957147e-05 0 -1.898399e-10)
(4.484067 0.04766959 0 7.92531e-06 0 4.065066e-07)
(4.482695 0.04768921 0 8.790313e-06 0 2.913386e-07)
(4.480347 0.0477423 0 1.092851e-05 0 1.231164e-07)
(4.477279 0.04784399 0 1.49319e-05 0 -1.106553e-07)
(4.473498 0.04801293 0 2.172854e-05 0 -4.482818e-07)
(4.469307 0.04827828 0 3.27179e-05 0 -9.252738e-07)
(4.4659 0.04868648 0 4.98688e-05 0 -1.518811e-06)
(4.465683 0.04930547 0 7.576321e-05 0 -2.117028e-06)
(4.472121 0.05022567 0 0.0001136911 0 -2.524135e-06)
(4.488696 0.05155529 0 0.0001679312 0 -2.539222e-06)
(4.516165 0.05339833 0 0.0002443 0 -2.216656e-06)
(4.551886 0.0558453 0 0.0003518479 0 -1.923132e-06)
(4.594871 0.05900538 0 0.0005010636 0 -1.824074e-06)
(4.648434 0.06302023 0 0.0007015763 0 -1.643875e-06)
(4.715466 0.06802822 0 0.0009662565 0 -1.139234e-06)
(4.794651 0.07412095 0 0.001310637 0 -3.905122e-07)
(4.881988 0.08135136 0 0.001752987 0 4.292316e-07)
(4.971942 0.08973285 0 0.002314079 0 1.163825e-06)
(5.058344 0.09923438 0 0.003016581 0 1.71574e-06)
(5.135107 0.1097768 0 0.003884174 0 2.045833e-06)
(5.196877 0.1212344 0 0.004940511 0 2.163364e-06)
(5.239464 0.1334417 0 0.00620809 0 2.106287e-06)
(5.260149 0.1462046 0 0.007707251 0 1.927517e-06)
(5.257696 0.1593128 0 0.009455264 0 1.678266e-06)
(5.232228 0.1725532 0 0.01146563 0 1.401689e-06)
(5.184954 0.1857193 0 0.01374749 0 1.126956e-06)
(5.117899 0.1986208 0 0.0163054 0 8.750681e-07)
(5.033568 0.2110885 0 0.01913904 0 6.552975e-07)
(4.934693 0.222977 0 0.02224326 0 4.706075e-07)
(4.824043 0.2341669 0 0.0256083 0 3.210273e-07)
(4.704246 0.2445639 0 0.02921993 0 2.032322e-07)
(4.577701 0.254097 0 0.03306001 0 1.133122e-07)
(4.446519 0.262717 0 0.0371069 0 4.673132e-08)
(4.312495 0.2703934 0 0.04133602 0 1.699035e-10)
(4.177098 0.2771111 0 0.04572049 0 -3.107976e-08)
(4.041493 0.2828677 0 0.05023173 0 -5.020816e-08)
(3.906572 0.2876718 0 0.05484024 0 -5.924399e-08)
(3.772966 0.2915383 0 0.05951617 0 -6.090786e-08)
(3.641081 0.2944868 0 0.06423 0 -5.747585e-08)
(3.511138 0.2965401 0 0.06895325 0 -5.018213e-08)
(3.383187 0.2977207 0 0.0736589 0 -4.059488e-08)
(3.257152 0.2980496 0 0.07832199 0 -2.910754e-08)
(3.132833 0.297544 0 0.0829197 0 -1.705359e-08)
(3.009945 0.2962158 0 0.08743139 0 -4.607879e-09)
(2.888137 0.2940697 0 0.09183811 0 8.016768e-09)
(2.767004 0.2911008 0 0.09612132 0 1.976928e-08)
(2.646128 0.2872941 0 0.1002612 0 3.092766e-08)
(2.525089 0.2826233 0 0.1042337 0 4.126491e-08)
(2.403501 0.2770503 0 0.1080063 0 5.062107e-08)
(2.281034 0.2705257 0 0.111533 0 5.857422e-08)
(2.15745 0.2629935 0 0.1147482 0 6.548499e-08)
(2.032617 0.2543939 0 0.117561 0 7.196113e-08)
(1.90651 0.2446713 0 0.1198495 0 7.755271e-08)
(1.779216 0.2337836 0 0.1214594 0 8.257251e-08)
(1.650902 0.2217109 0 0.1222066 0 8.749884e-08)
(1.521784 0.2084637 0 0.1218856 0 9.288836e-08)
(1.392074 0.194088 0 0.120284 0 9.882512e-08)
(1.261944 0.178663 0 0.1172005 0 1.053855e-07)
(1.131499 0.1622956 0 0.1124639 0 1.126649e-07)
(1.000759 0.1451087 0 0.105948 0 1.208873e-07)
(0.8696693 0.1272297 0 0.0975808 0 1.303504e-07)
(0.7381142 0.1087783 0 0.08734518 0 1.41324e-07)
(0.6059681 0.08986099 0 0.07527405 0 1.556658e-07)
(0.4731052 0.07056357 0 0.06143477 0 1.784944e-07)
(0.339641 0.05098718 0 0.04594781 0 2.069994e-07)
(0.2084124 0.03162319 0 0.02933474 0 1.705658e-07)
(0.09652878 0.0149946 0 0.01413412 0 -5.832043e-08)
(0.03472777 0.005699557 0 0.005259787 0 -1.55033e-07)
(0.0132737 0.002429386 0 0.002067322 0 -6.710992e-08)
(0.006165284 0.001314251 0 0.0009825845 0 -2.004717e-08)
(0.003228228 0.0008258491 0 0.0005327469 0 -4.634503e-09)
(0.00159309 0.0005229174 0 0.0002568244 0 -2.64193e-09)
(0.000839437 0.0003498912 0 0.0001659563 0 -1.132451e-09)
(0.0001720795 0.0001774675 0 -1.190704e-06 0 -1.756562e-09)
(7.244307e-05 6.237968e-05 0 2.957147e-05 0 -1.898399e-10)
)
;
    }
    wall
    {
        type            calculated;
        value           nonuniform List<symmTensor> 2((4.483928 0.04766877 0 7.909058e-06 0 3.861896e-07) (4.484205 0.0476704 0 7.941563e-06 0 4.268244e-07));
    }
    frontAndBack
    {
        type            empty;
    }
    middle
    {
        type            symmetryPlane;
        value           nonuniform List<symmTensor> 2((7.24434e-05 0 0 2.957225e-05 0 4.828958e-10) (7.244274e-05 0 0 2.95707e-05 0 -8.625756e-10));
    }
}


// ************************************************************************* //
