/*--------------------------------*- C++ -*----------------------------------*\
| =========                 |                                                 |
| \\      /  F ield         | foam-extend: Open Source CFD                    |
|  \\    /   O peration     | Version:     4.0                                |
|   \\  /    A nd           | Web:         http://www.foam-extend.org         |
|    \\/     M anipulation  |                                                 |
\*---------------------------------------------------------------------------*/
FoamFile
{
    version     2.0;
    format      ascii;
    class       volScalarField;
    location    "100";
    object      trC;
}
// * * * * * * * * * * * * * * * * * * * * * * * * * * * * * * * * * * * * * //

dimensions      [0 0 0 0 0 0 0];

internalField   nonuniform List<scalar> 
150
(
1998.141
1998.195
1997.888
1997.905
1997.43
1997.433
1996.823
1996.823
1996.074
1996.073
1995.243
1995.242
1994.569
1994.567
1994.531
1994.53
1995.819
1995.817
1999.116
1999.115
2004.55
2004.548
2011.562
2011.56
2019.922
2019.921
2030.22
2030.219
2042.922
2042.922
2057.671
2057.671
2073.63
2073.629
2089.743
2089.742
2104.931
2104.93
2118.213
2118.211
2128.789
2128.788
2136.083
2136.082
2139.745
2139.744
2139.629
2139.628
2135.756
2135.754
2128.268
2128.267
2117.4
2117.399
2103.436
2103.435
2086.686
2086.685
2067.472
2067.471
2046.105
2046.105
2022.883
2022.883
1998.079
1998.079
1971.939
1971.938
1944.673
1944.672
1916.46
1916.46
1887.447
1887.446
1857.74
1857.739
1827.411
1827.41
1796.497
1796.497
1765
1765
1732.888
1732.887
1700.091
1700.091
1666.511
1666.51
1632.013
1632.013
1596.433
1596.433
1559.58
1559.58
1521.235
1521.235
1481.162
1481.162
1439.108
1439.107
1394.814
1394.814
1348.02
1348.019
1298.461
1298.461
1245.874
1245.874
1189.984
1189.984
1130.494
1130.494
1067.065
1067.065
999.2993
999.2992
926.7218
926.7217
848.7656
848.7657
764.7602
764.7603
673.9211
673.9212
575.3551
575.3554
468.036
468.0364
350.9886
350.9894
225.8285
225.8301
110.2705
110.2719
42.51421
42.51471
18.26281
18.2629
10.1276
10.12762
6.753843
6.753849
4.847389
4.847386
4.004258
4.004254
3.170733
3.170734
3.101926
3.101923
)
;

boundaryField
{
    leftandright
    {
        type            cyclic;
        value           nonuniform List<scalar> 
150
(
1998.168
1997.897
1997.431
1996.823
1996.074
1995.243
1994.568
1994.53
1995.818
1999.116
2004.549
2011.561
2019.921
2030.219
2042.922
2057.671
2073.629
2089.743
2104.931
2118.212
2128.789
2136.082
2139.744
2139.628
2135.755
2128.267
2117.4
2103.435
2086.686
2067.471
2046.105
2022.883
1998.079
1971.938
1944.672
1916.46
1887.447
1857.739
1827.411
1796.497
1765
1732.887
1700.091
1666.51
1632.013
1596.433
1559.58
1521.235
1481.162
1439.108
1394.814
1348.02
1298.461
1245.874
1189.984
1130.494
1067.065
999.2993
926.7218
848.7656
764.7603
673.9212
575.3553
468.0362
350.989
225.8293
110.2712
42.51446
18.26286
10.12761
6.753846
4.847388
4.004256
3.170733
3.101925
1998.168
1997.897
1997.431
1996.823
1996.074
1995.243
1994.568
1994.53
1995.818
1999.116
2004.549
2011.561
2019.921
2030.219
2042.922
2057.671
2073.629
2089.743
2104.931
2118.212
2128.789
2136.082
2139.744
2139.628
2135.755
2128.267
2117.4
2103.435
2086.686
2067.471
2046.105
2022.883
1998.079
1971.938
1944.672
1916.46
1887.447
1857.739
1827.411
1796.497
1765
1732.887
1700.091
1666.51
1632.013
1596.433
1559.58
1521.235
1481.162
1439.108
1394.814
1348.02
1298.461
1245.874
1189.984
1130.494
1067.065
999.2993
926.7218
848.7656
764.7603
673.9212
575.3553
468.0362
350.989
225.8293
110.2712
42.51446
18.26286
10.12761
6.753846
4.847388
4.004256
3.170733
3.101925
)
;
    }
    wall
    {
        type            calculated;
        value           nonuniform List<scalar> 2(1998.141 1998.195);
    }
    frontAndBack
    {
        type            empty;
    }
    middle
    {
        type            symmetryPlane;
        value           nonuniform List<scalar> 2(3.101926 3.101923);
    }
}


// ************************************************************************* //
