/*--------------------------------*- C++ -*----------------------------------*\
| =========                 |                                                 |
| \\      /  F ield         | foam-extend: Open Source CFD                    |
|  \\    /   O peration     | Version:     4.0                                |
|   \\  /    A nd           | Web:         http://www.foam-extend.org         |
|    \\/     M anipulation  |                                                 |
\*---------------------------------------------------------------------------*/
FoamFile
{
    version     2.0;
    format      ascii;
    class       volVectorField;
    location    "100";
    object      U;
}
// * * * * * * * * * * * * * * * * * * * * * * * * * * * * * * * * * * * * * //

dimensions      [0 1 -1 0 0 0 0];

internalField   nonuniform List<vector> 
150
(
(0.2602032 1.605004e-06 0)
(0.2602028 1.605568e-06 0)
(0.7931795 4.271579e-06 0)
(0.7931788 4.271226e-06 0)
(1.352432 5.607205e-06 0)
(1.352431 5.605525e-06 0)
(1.938761 6.343259e-06 0)
(1.938761 6.342432e-06 0)
(2.552542 6.381482e-06 0)
(2.552541 6.380875e-06 0)
(3.193586 5.715182e-06 0)
(3.193586 5.71467e-06 0)
(3.861121 4.480926e-06 0)
(3.861121 4.480362e-06 0)
(4.553875 2.93373e-06 0)
(4.553875 2.933084e-06 0)
(5.27026 1.250717e-06 0)
(5.27026 1.249965e-06 0)
(6.008556 -1.146854e-06 0)
(6.008556 -1.147685e-06 0)
(6.76704 -4.763589e-06 0)
(6.76704 -4.764465e-06 0)
(7.541614 -7.745731e-06 0)
(7.541614 -7.746548e-06 0)
(8.324479 -8.82024e-06 0)
(8.324479 -8.821081e-06 0)
(9.108673 -9.575491e-06 0)
(9.108673 -9.576375e-06 0)
(9.889374 -1.053662e-05 0)
(9.889374 -1.053741e-05 0)
(10.66195 -1.099374e-05 0)
(10.66195 -1.099474e-05 0)
(11.42205 -1.078503e-05 0)
(11.42205 -1.078594e-05 0)
(12.16577 -9.949109e-06 0)
(12.16577 -9.949666e-06 0)
(12.88967 -8.602949e-06 0)
(12.88967 -8.603798e-06 0)
(13.59091 -6.902467e-06 0)
(13.59091 -6.903237e-06 0)
(14.26729 -5.018763e-06 0)
(14.26729 -5.019301e-06 0)
(14.91723 -3.111046e-06 0)
(14.91723 -3.111633e-06 0)
(15.53975 -1.307425e-06 0)
(15.53975 -1.308029e-06 0)
(16.13448 3.032525e-07 0)
(16.13448 3.028366e-07 0)
(16.7015 1.668797e-06 0)
(16.7015 1.668305e-06 0)
(17.24135 2.770608e-06 0)
(17.24135 2.77057e-06 0)
(17.7549 3.615256e-06 0)
(17.7549 3.615415e-06 0)
(18.24328 4.221245e-06 0)
(18.24328 4.221031e-06 0)
(18.70778 4.621048e-06 0)
(18.70778 4.620604e-06 0)
(19.14986 4.845666e-06 0)
(19.14986 4.845882e-06 0)
(19.57101 4.928274e-06 0)
(19.57101 4.928883e-06 0)
(19.97274 4.902782e-06 0)
(19.97274 4.902772e-06 0)
(20.35656 4.79435e-06 0)
(20.35656 4.794514e-06 0)
(20.72393 4.626645e-06 0)
(20.72393 4.626831e-06 0)
(21.07624 4.417109e-06 0)
(21.07624 4.417349e-06 0)
(21.41482 4.182457e-06 0)
(21.41482 4.183172e-06 0)
(21.74088 3.937442e-06 0)
(21.74088 3.936111e-06 0)
(22.05556 3.684994e-06 0)
(22.05556 3.685044e-06 0)
(22.35991 3.435911e-06 0)
(22.35991 3.437098e-06 0)
(22.65485 3.196867e-06 0)
(22.65485 3.197376e-06 0)
(22.94123 2.969344e-06 0)
(22.94123 2.969686e-06 0)
(23.21976 2.75866e-06 0)
(23.21976 2.758515e-06 0)
(23.49107 2.563576e-06 0)
(23.49107 2.564747e-06 0)
(23.75568 2.390771e-06 0)
(23.75568 2.391207e-06 0)
(24.014 2.237488e-06 0)
(24.014 2.237404e-06 0)
(24.26633 2.101051e-06 0)
(24.26633 2.100972e-06 0)
(24.51287 1.984535e-06 0)
(24.51287 1.98467e-06 0)
(24.7537 1.879768e-06 0)
(24.7537 1.880162e-06 0)
(24.98884 1.773003e-06 0)
(24.98884 1.772788e-06 0)
(25.2182 1.65322e-06 0)
(25.2182 1.652963e-06 0)
(25.44165 1.499003e-06 0)
(25.44165 1.499276e-06 0)
(25.65901 1.275588e-06 0)
(25.65901 1.275759e-06 0)
(25.8701 9.563941e-07 0)
(25.8701 9.561772e-07 0)
(26.07479 5.217741e-07 0)
(26.07479 5.213153e-07 0)
(26.27299 -4.751675e-08 0)
(26.27299 -4.728238e-08 0)
(26.4647 -7.261378e-07 0)
(26.4647 -7.261278e-07 0)
(26.65004 -1.469498e-06 0)
(26.65004 -1.469463e-06 0)
(26.8292 -2.211272e-06 0)
(26.8292 -2.210839e-06 0)
(27.0025 -2.867973e-06 0)
(27.0025 -2.867832e-06 0)
(27.17027 -3.377971e-06 0)
(27.17027 -3.377811e-06 0)
(27.33293 -3.721421e-06 0)
(27.33293 -3.721098e-06 0)
(27.49088 -3.850536e-06 0)
(27.49088 -3.850198e-06 0)
(27.64447 -3.70872e-06 0)
(27.64447 -3.708165e-06 0)
(27.79402 -3.827994e-06 0)
(27.79402 -3.827088e-06 0)
(27.93971 -1.045334e-05 0)
(27.93971 -1.045219e-05 0)
(28.08155 -3.298207e-05 0)
(28.08155 -3.298157e-05 0)
(28.21877 -1.829517e-05 0)
(28.21877 -1.829615e-05 0)
(28.34909 3.729173e-05 0)
(28.34909 3.729036e-05 0)
(28.46937 7.550195e-06 0)
(28.46937 7.549606e-06 0)
(28.57726 6.835273e-05 0)
(28.57726 6.835251e-05 0)
(28.67123 -0.0001722483 0)
(28.67123 -0.0001722484 0)
(28.74992 0.0005119118 0)
(28.74992 0.0005119117 0)
(28.81187 -0.001425057 0)
(28.81187 -0.001425057 0)
(28.85541 0.003832131 0)
(28.85541 0.003832131 0)
(28.87853 -0.006961466 0)
(28.87853 -0.006961466 0)
)
;

boundaryField
{
    leftandright
    {
        type            cyclic;
        value           nonuniform List<vector> 
150
(
(0.260203 1.605286e-06 0)
(0.7931792 4.271402e-06 0)
(1.352431 5.606365e-06 0)
(1.938761 6.342846e-06 0)
(2.552541 6.381179e-06 0)
(3.193586 5.714926e-06 0)
(3.861121 4.480644e-06 0)
(4.553875 2.933407e-06 0)
(5.27026 1.250341e-06 0)
(6.008556 -1.147269e-06 0)
(6.76704 -4.764027e-06 0)
(7.541614 -7.746139e-06 0)
(8.324479 -8.82066e-06 0)
(9.108673 -9.575933e-06 0)
(9.889374 -1.053701e-05 0)
(10.66195 -1.099424e-05 0)
(11.42205 -1.078549e-05 0)
(12.16577 -9.949387e-06 0)
(12.88967 -8.603373e-06 0)
(13.59091 -6.902852e-06 0)
(14.26729 -5.019032e-06 0)
(14.91723 -3.111339e-06 0)
(15.53975 -1.307727e-06 0)
(16.13448 3.030445e-07 0)
(16.7015 1.668551e-06 0)
(17.24135 2.770589e-06 0)
(17.7549 3.615336e-06 0)
(18.24328 4.221138e-06 0)
(18.70778 4.620826e-06 0)
(19.14986 4.845774e-06 0)
(19.57101 4.928578e-06 0)
(19.97274 4.902777e-06 0)
(20.35656 4.794432e-06 0)
(20.72393 4.626738e-06 0)
(21.07624 4.417229e-06 0)
(21.41482 4.182815e-06 0)
(21.74088 3.936776e-06 0)
(22.05556 3.685019e-06 0)
(22.35991 3.436505e-06 0)
(22.65485 3.197121e-06 0)
(22.94123 2.969515e-06 0)
(23.21976 2.758587e-06 0)
(23.49107 2.564162e-06 0)
(23.75568 2.390989e-06 0)
(24.014 2.237446e-06 0)
(24.26633 2.101012e-06 0)
(24.51287 1.984602e-06 0)
(24.7537 1.879965e-06 0)
(24.98884 1.772896e-06 0)
(25.2182 1.653091e-06 0)
(25.44165 1.499139e-06 0)
(25.65901 1.275673e-06 0)
(25.8701 9.562857e-07 0)
(26.07479 5.215447e-07 0)
(26.27299 -4.739956e-08 0)
(26.4647 -7.261328e-07 0)
(26.65004 -1.469481e-06 0)
(26.8292 -2.211056e-06 0)
(27.0025 -2.867902e-06 0)
(27.17027 -3.377891e-06 0)
(27.33293 -3.721259e-06 0)
(27.49088 -3.850367e-06 0)
(27.64447 -3.708443e-06 0)
(27.79402 -3.827541e-06 0)
(27.93971 -1.045276e-05 0)
(28.08155 -3.298182e-05 0)
(28.21877 -1.829566e-05 0)
(28.34909 3.729105e-05 0)
(28.46937 7.5499e-06 0)
(28.57726 6.835262e-05 0)
(28.67123 -0.0001722484 0)
(28.74992 0.0005119117 0)
(28.81187 -0.001425057 0)
(28.85541 0.003832131 0)
(28.87853 -0.006961466 0)
(0.260203 1.605286e-06 0)
(0.7931792 4.271402e-06 0)
(1.352431 5.606365e-06 0)
(1.938761 6.342846e-06 0)
(2.552541 6.381179e-06 0)
(3.193586 5.714926e-06 0)
(3.861121 4.480644e-06 0)
(4.553875 2.933407e-06 0)
(5.27026 1.250341e-06 0)
(6.008556 -1.147269e-06 0)
(6.76704 -4.764027e-06 0)
(7.541614 -7.746139e-06 0)
(8.324479 -8.82066e-06 0)
(9.108673 -9.575933e-06 0)
(9.889374 -1.053701e-05 0)
(10.66195 -1.099424e-05 0)
(11.42205 -1.078549e-05 0)
(12.16577 -9.949387e-06 0)
(12.88967 -8.603373e-06 0)
(13.59091 -6.902852e-06 0)
(14.26729 -5.019032e-06 0)
(14.91723 -3.111339e-06 0)
(15.53975 -1.307727e-06 0)
(16.13448 3.030445e-07 0)
(16.7015 1.668551e-06 0)
(17.24135 2.770589e-06 0)
(17.7549 3.615336e-06 0)
(18.24328 4.221138e-06 0)
(18.70778 4.620826e-06 0)
(19.14986 4.845774e-06 0)
(19.57101 4.928578e-06 0)
(19.97274 4.902777e-06 0)
(20.35656 4.794432e-06 0)
(20.72393 4.626738e-06 0)
(21.07624 4.417229e-06 0)
(21.41482 4.182815e-06 0)
(21.74088 3.936776e-06 0)
(22.05556 3.685019e-06 0)
(22.35991 3.436505e-06 0)
(22.65485 3.197121e-06 0)
(22.94123 2.969515e-06 0)
(23.21976 2.758587e-06 0)
(23.49107 2.564162e-06 0)
(23.75568 2.390989e-06 0)
(24.014 2.237446e-06 0)
(24.26633 2.101012e-06 0)
(24.51287 1.984602e-06 0)
(24.7537 1.879965e-06 0)
(24.98884 1.772896e-06 0)
(25.2182 1.653091e-06 0)
(25.44165 1.499139e-06 0)
(25.65901 1.275673e-06 0)
(25.8701 9.562857e-07 0)
(26.07479 5.215447e-07 0)
(26.27299 -4.739956e-08 0)
(26.4647 -7.261328e-07 0)
(26.65004 -1.469481e-06 0)
(26.8292 -2.211056e-06 0)
(27.0025 -2.867902e-06 0)
(27.17027 -3.377891e-06 0)
(27.33293 -3.721259e-06 0)
(27.49088 -3.850367e-06 0)
(27.64447 -3.708443e-06 0)
(27.79402 -3.827541e-06 0)
(27.93971 -1.045276e-05 0)
(28.08155 -3.298182e-05 0)
(28.21877 -1.829566e-05 0)
(28.34909 3.729105e-05 0)
(28.46937 7.5499e-06 0)
(28.57726 6.835262e-05 0)
(28.67123 -0.0001722484 0)
(28.74992 0.0005119117 0)
(28.81187 -0.001425057 0)
(28.85541 0.003832131 0)
(28.87853 -0.006961466 0)
)
;
    }
    wall
    {
        type            fixedValue;
        value           uniform (0 0 0);
    }
    frontAndBack
    {
        type            empty;
    }
    middle
    {
        type            symmetryPlane;
        value           nonuniform List<vector> 2((28.87853 0 0) (28.87853 0 0));
    }
}


// ************************************************************************* //
