/*--------------------------------*- C++ -*----------------------------------*\
| =========                 |                                                 |
| \\      /  F ield         | foam-extend: Open Source CFD                    |
|  \\    /   O peration     | Version:     4.0                                |
|   \\  /    A nd           | Web:         http://www.foam-extend.org         |
|    \\/     M anipulation  |                                                 |
\*---------------------------------------------------------------------------*/
FoamFile
{
    version     2.0;
    format      ascii;
    class       volScalarField;
    location    "100";
    object      v2;
}
// * * * * * * * * * * * * * * * * * * * * * * * * * * * * * * * * * * * * * //

dimensions      [0 2 -2 0 0 0 0];

internalField   nonuniform List<scalar> 
150
(
4.048536e-07
4.048537e-07
1.991372e-05
1.991372e-05
0.0001220188
0.0001220188
0.0004084819
0.000408482
0.001006029
0.00100603
0.002053837
0.002053838
0.003692231
0.003692232
0.006053548
0.00605355
0.009256063
0.009256066
0.01340119
0.01340119
0.01857342
0.01857342
0.02482275
0.02482275
0.03214392
0.03214393
0.04050528
0.04050529
0.04986435
0.04986436
0.06015056
0.06015058
0.07126685
0.07126686
0.08309345
0.08309347
0.0954936
0.09549362
0.10832
0.10832
0.1214213
0.1214213
0.1346484
0.1346485
0.1478593
0.1478593
0.1609225
0.1609225
0.1737195
0.1737195
0.1861461
0.1861461
0.1981123
0.1981124
0.2095421
0.2095421
0.2203722
0.2203722
0.230551
0.2305511
0.2400375
0.2400375
0.2487996
0.2487996
0.2568137
0.2568137
0.2640634
0.2640634
0.270539
0.270539
0.2762373
0.2762373
0.2811611
0.2811611
0.2853198
0.2853198
0.2887292
0.2887292
0.2914122
0.2914122
0.2933995
0.2933994
0.2947301
0.2947301
0.2954526
0.2954526
0.2956255
0.2956255
0.2953183
0.2953183
0.2946117
0.2946117
0.2935978
0.2935978
0.2923795
0.2923795
0.2910686
0.2910686
0.2897833
0.2897832
0.2886438
0.2886438
0.2877675
0.2877675
0.2872617
0.2872616
0.2872171
0.2872171
0.2877014
0.2877014
0.288754
0.288754
0.2903825
0.2903824
0.2925606
0.2925605
0.2952283
0.2952282
0.298292
0.298292
0.3016251
0.3016251
0.3050673
0.3050673
0.3084219
0.3084219
0.3114507
0.3114507
0.3138652
0.3138652
0.3153126
0.3153126
0.3153666
0.3153666
0.3135759
0.3135759
0.3095865
0.3095864
0.3039514
0.3039514
0.2974669
0.2974669
0.2909246
0.2909246
0.2850714
0.2850714
0.2805915
0.2805915
0.2780887
0.2780887
)
;

boundaryField
{
    leftandright
    {
        type            cyclic;
        value           nonuniform List<scalar> 
150
(
4.048537e-07
1.991372e-05
0.0001220188
0.0004084819
0.001006029
0.002053838
0.003692231
0.006053549
0.009256064
0.01340119
0.01857342
0.02482275
0.03214392
0.04050529
0.04986436
0.06015057
0.07126685
0.08309346
0.09549361
0.10832
0.1214213
0.1346485
0.1478593
0.1609225
0.1737195
0.1861461
0.1981124
0.2095421
0.2203722
0.2305511
0.2400375
0.2487996
0.2568137
0.2640634
0.270539
0.2762373
0.2811611
0.2853198
0.2887292
0.2914122
0.2933995
0.2947301
0.2954526
0.2956255
0.2953183
0.2946117
0.2935978
0.2923795
0.2910686
0.2897832
0.2886438
0.2877675
0.2872617
0.2872171
0.2877014
0.288754
0.2903824
0.2925605
0.2952282
0.298292
0.3016251
0.3050673
0.3084219
0.3114507
0.3138652
0.3153126
0.3153666
0.3135759
0.3095864
0.3039514
0.2974669
0.2909246
0.2850714
0.2805915
0.2780887
4.048537e-07
1.991372e-05
0.0001220188
0.0004084819
0.001006029
0.002053838
0.003692231
0.006053549
0.009256064
0.01340119
0.01857342
0.02482275
0.03214392
0.04050529
0.04986436
0.06015057
0.07126685
0.08309346
0.09549361
0.10832
0.1214213
0.1346485
0.1478593
0.1609225
0.1737195
0.1861461
0.1981124
0.2095421
0.2203722
0.2305511
0.2400375
0.2487996
0.2568137
0.2640634
0.270539
0.2762373
0.2811611
0.2853198
0.2887292
0.2914122
0.2933995
0.2947301
0.2954526
0.2956255
0.2953183
0.2946117
0.2935978
0.2923795
0.2910686
0.2897832
0.2886438
0.2877675
0.2872617
0.2872171
0.2877014
0.288754
0.2903824
0.2925605
0.2952282
0.298292
0.3016251
0.3050673
0.3084219
0.3114507
0.3138652
0.3153126
0.3153666
0.3135759
0.3095864
0.3039514
0.2974669
0.2909246
0.2850714
0.2805915
0.2780887
)
;
    }
    wall
    {
        type            fixedValue;
        value           uniform 1e-10;
    }
    frontAndBack
    {
        type            empty;
    }
    middle
    {
        type            symmetryPlane;
        value           nonuniform List<scalar> 2(0.2780887 0.2780887);
    }
}


// ************************************************************************* //
