/*--------------------------------*- C++ -*----------------------------------*\
| =========                 |                                                 |
| \\      /  F ield         | foam-extend: Open Source CFD                    |
|  \\    /   O peration     | Version:     4.0                                |
|   \\  /    A nd           | Web:         http://www.foam-extend.org         |
|    \\/     M anipulation  |                                                 |
\*---------------------------------------------------------------------------*/
FoamFile
{
    version     2.0;
    format      ascii;
    class       volSymmTensorField;
    location    "100";
    object      C;
}
// * * * * * * * * * * * * * * * * * * * * * * * * * * * * * * * * * * * * * //

dimensions      [0 0 0 0 0 0 0];

internalField   nonuniform List<symmTensor> 
150
(
(498.3672 10.56434 0 0.4475657 0 0.4474554)
(498.3668 10.56432 0 0.4475654 0 0.4474559)
(498.2312 10.56357 0 0.4476683 0 0.4475466)
(498.2309 10.56355 0 0.447668 0 0.4475471)
(497.9979 10.56301 0 0.447883 0 0.4477369)
(497.9976 10.56299 0 0.4478827 0 0.4477373)
(497.6862 10.56325 0 0.4482198 0 0.4480305)
(497.686 10.56323 0 0.4482195 0 0.4480308)
(497.3004 10.5646 0 0.4486943 0 0.4484332)
(497.3002 10.56458 0 0.448694 0 0.4484335)
(496.8306 10.56724 0 0.449333 0 0.4489555)
(496.8305 10.56722 0 0.4493327 0 0.4489557)
(496.2554 10.5713 0 0.4501772 0 0.4496137)
(496.2553 10.57128 0 0.4501769 0 0.4496138)
(495.5441 10.57694 0 0.4512868 0 0.4504301)
(495.5441 10.57693 0 0.4512865 0 0.4504303)
(494.6607 10.58447 0 0.4527419 0 0.4514325)
(494.6607 10.58446 0 0.4527416 0 0.4514327)
(493.5683 10.59438 0 0.4546431 0 0.4526512)
(493.5684 10.59437 0 0.4546428 0 0.4526514)
(492.2346 10.60743 0 0.4571093 0 0.4541156)
(492.2347 10.60741 0 0.457109 0 0.4541158)
(490.637 10.62468 0 0.4602749 0 0.4558512)
(490.6371 10.62467 0 0.4602746 0 0.4558513)
(488.7677 10.64759 0 0.4642859 0 0.4578768)
(488.7679 10.64758 0 0.4642855 0 0.4578769)
(486.6352 10.67808 0 0.469302 0 0.4602065)
(486.6355 10.67807 0 0.4693017 0 0.4602067)
(484.259 10.71865 0 0.4755116 0 0.4628586)
(484.2593 10.71864 0 0.4755114 0 0.4628587)
(481.6423 10.77247 0 0.4831757 0 0.4658763)
(481.6426 10.77246 0 0.4831755 0 0.4658765)
(478.6851 10.84244 0 0.4927283 0 0.4693632)
(478.6855 10.84244 0 0.4927281 0 0.4693634)
(475.0527 10.92859 0 0.5049362 0 0.4734974)
(475.0531 10.92859 0 0.5049362 0 0.4734975)
(470.4756 11.03127 0 0.5208523 0 0.4784247)
(470.476 11.03127 0 0.5208523 0 0.4784248)
(465.0756 11.15464 0 0.5406068 0 0.4841299)
(465.076 11.15465 0 0.540607 0 0.4841301)
(459.1536 11.3036 0 0.5643905 0 0.4904751)
(459.1541 11.30361 0 0.5643907 0 0.4904752)
(452.8377 11.47918 0 0.59251 0 0.4973318)
(452.8382 11.47919 0 0.5925102 0 0.497332)
(446.1895 11.68158 0 0.6253877 0 0.5046059)
(446.19 11.68159 0 0.625388 0 0.5046062)
(439.251 11.91107 0 0.663553 0 0.5122287)
(439.2515 11.91108 0 0.6635533 0 0.512229)
(432.0598 12.16808 0 0.7076284 0 0.5201453)
(432.0603 12.16809 0 0.7076288 0 0.5201457)
(424.653 12.45298 0 0.7583194 0 0.5283083)
(424.6535 12.45299 0 0.7583197 0 0.5283087)
(417.0657 12.76592 0 0.8164058 0 0.5366751)
(417.0663 12.76593 0 0.8164061 0 0.5366755)
(409.3297 13.10665 0 0.8827337 0 0.5452079)
(409.3302 13.10666 0 0.8827341 0 0.5452084)
(401.4714 13.47442 0 0.9582032 0 0.553875)
(401.4719 13.47443 0 0.9582037 0 0.5538755)
(393.5112 13.86784 0 1.043752 0 0.5626511)
(393.5117 13.86785 0 1.043753 0 0.5626517)
(385.4622 14.28481 0 1.140332 0 0.5715192)
(385.4627 14.28482 0 1.140332 0 0.5715197)
(377.3306 14.72239 0 1.248878 0 0.5804696)
(377.3311 14.7224 0 1.248879 0 0.5804702)
(369.1155 15.17681 0 1.370274 0 0.5895013)
(369.1159 15.17682 0 1.370275 0 0.5895019)
(360.8097 15.64336 0 1.505304 0 0.5986201)
(360.81 15.64337 0 1.505305 0 0.5986206)
(352.4002 16.11646 0 1.654603 0 0.6078386)
(352.4004 16.11647 0 1.654604 0 0.6078391)
(343.8699 16.58963 0 1.818601 0 0.6171745)
(343.8701 16.58965 0 1.818602 0 0.6171749)
(335.1988 17.05562 0 1.997462 0 0.6266497)
(335.199 17.05563 0 1.997463 0 0.62665)
(326.3646 17.50646 0 2.191024 0 0.6362888)
(326.3646 17.50648 0 2.191026 0 0.636289)
(317.3438 17.93364 0 2.39874 0 0.6461181)
(317.3438 17.93365 0 2.398741 0 0.6461182)
(308.1133 18.32818 0 2.619619 0 0.6561649)
(308.1133 18.32819 0 2.619621 0 0.6561649)
(298.6502 18.68087 0 2.852177 0 0.6664564)
(298.6502 18.68087 0 2.852178 0 0.6664561)
(288.9324 18.98234 0 3.094391 0 0.6770194)
(288.9323 18.98234 0 3.094392 0 0.6770192)
(278.939 19.22331 0 3.343667 0 0.6878806)
(278.9388 19.22331 0 3.343667 0 0.6878802)
(268.65 19.39461 0 3.596812 0 0.6990659)
(268.6498 19.3946 0 3.596812 0 0.6990655)
(258.0464 19.48739 0 3.850023 0 0.710601)
(258.0463 19.48738 0 3.850022 0 0.7106005)
(247.11 19.49317 0 4.098882 0 0.7225112)
(247.1098 19.49317 0 4.098882 0 0.7225107)
(235.8232 19.40397 0 4.338369 0 0.7348219)
(235.8231 19.40396 0 4.338368 0 0.7348215)
(224.1692 19.21228 0 4.562874 0 0.7475582)
(224.1692 19.21228 0 4.562873 0 0.7475577)
(212.1325 18.91124 0 4.766244 0 0.7607445)
(212.1325 18.91124 0 4.766244 0 0.7607442)
(199.6988 18.49466 0 4.941833 0 0.774404)
(199.6989 18.49465 0 4.941832 0 0.7744036)
(186.8574 17.95711 0 5.082579 0 0.7885565)
(186.8575 17.95712 0 5.08258 0 0.7885564)
(173.6028 17.29426 0 5.181135 0 0.8032163)
(173.6029 17.29426 0 5.181135 0 0.8032162)
(159.939 16.5031 0 5.230051 0 0.8183865)
(159.9392 16.50311 0 5.230052 0 0.8183864)
(145.886 15.58271 0 5.222093 0 0.8340519)
(145.8862 15.58272 0 5.222096 0 0.8340519)
(131.4895 14.53527 0 5.150742 0 0.8501675)
(131.4896 14.53528 0 5.150746 0 0.8501675)
(116.8348 13.3678 0 5.011006 0 0.8666416)
(116.8349 13.36781 0 5.011011 0 0.8666416)
(102.0654 12.09444 0 4.800634 0 0.8833146)
(102.0655 12.09445 0 4.800639 0 0.8833146)
(87.40317 10.73948 0 4.521798 0 0.8999356)
(87.40332 10.7395 0 4.521805 0 0.8999355)
(73.16074 9.339788 0 4.182963 0 0.9161478)
(73.16087 9.339802 0 4.182969 0 0.9161477)
(59.73095 7.944949 0 3.800145 0 0.9315)
(59.73106 7.94496 0 3.80015 0 0.9314999)
(47.5349 6.612433 0 3.396211 0 0.9455041)
(47.53498 6.612441 0 3.396215 0 0.9455039)
(36.92894 5.396873 0 2.997151 0 0.9577402)
(36.92901 5.39688 0 2.997154 0 0.9577401)
(28.10746 4.337144 0 2.62612 0 0.9679684)
(28.10751 4.337149 0 2.626122 0 0.9679684)
(21.0596 3.448451 0 2.298295 0 0.9761818)
(21.05963 3.448454 0 2.298297 0 0.9761817)
(15.60596 2.724 0 2.019449 0 0.9825697)
(15.60598 2.724002 0 2.01945 0 0.9825699)
(11.48077 2.143338 0 1.788056 0 0.987427)
(11.48078 2.143339 0 1.788057 0 0.9874269)
(8.409139 1.681675 0 1.59899 0 0.9910632)
(8.409146 1.681676 0 1.598991 0 0.9910633)
(6.145748 1.314765 0 1.445579 0 0.9937584)
(6.145755 1.314767 0 1.44558 0 0.9937588)
(4.497041 1.023371 0 1.323104 0 0.9957345)
(4.497047 1.023372 0 1.323105 0 0.9957355)
(3.290675 0.7861644 0 1.222003 0 0.9971932)
(3.290677 0.7861651 0 1.222005 0 0.9971943)
(2.446846 0.5989552 0 1.151716 0 0.9982176)
(2.446843 0.5989543 0 1.151715 0 0.9982178)
(1.797083 0.4274836 0 1.072977 0 0.9990268)
(1.797077 0.4274817 0 1.072976 0 0.9990248)
(1.479196 0.3144231 0 1.090447 0 0.9993703)
(1.479192 0.3144224 0 1.090444 0 0.9993658)
(1.061233 0.1586514 0 0.950205 0 0.9999785)
(1.061234 0.1586524 0 0.9502054 0 0.9999793)
(1.063282 0.0602871 0 1.04153 0 0.9998848)
(1.06328 0.06028692 0 1.041529 0 0.9998842)
)
;

boundaryField
{
    leftandright
    {
        type            cyclic;
        value           nonuniform List<symmTensor> 
150
(
(498.367 10.56433 0 0.4475656 0 0.4474556)
(498.2311 10.56356 0 0.4476681 0 0.4475468)
(497.9977 10.563 0 0.4478828 0 0.4477371)
(497.6861 10.56324 0 0.4482196 0 0.4480306)
(497.3003 10.56459 0 0.4486942 0 0.4484334)
(496.8305 10.56723 0 0.4493328 0 0.4489556)
(496.2553 10.57129 0 0.4501771 0 0.4496137)
(495.5441 10.57694 0 0.4512867 0 0.4504302)
(494.6607 10.58447 0 0.4527418 0 0.4514326)
(493.5684 10.59438 0 0.4546429 0 0.4526513)
(492.2346 10.60742 0 0.4571092 0 0.4541157)
(490.637 10.62467 0 0.4602747 0 0.4558512)
(488.7678 10.64759 0 0.4642857 0 0.4578768)
(486.6354 10.67808 0 0.4693019 0 0.4602066)
(484.2591 10.71865 0 0.4755115 0 0.4628587)
(481.6425 10.77246 0 0.4831756 0 0.4658764)
(478.6853 10.84244 0 0.4927282 0 0.4693633)
(475.0529 10.92859 0 0.5049362 0 0.4734975)
(470.4758 11.03127 0 0.5208523 0 0.4784248)
(465.0758 11.15465 0 0.5406069 0 0.48413)
(459.1538 11.30361 0 0.5643906 0 0.4904751)
(452.8379 11.47919 0 0.5925101 0 0.4973319)
(446.1898 11.68158 0 0.6253878 0 0.5046061)
(439.2512 11.91108 0 0.6635532 0 0.5122289)
(432.06 12.16809 0 0.7076286 0 0.5201455)
(424.6532 12.45299 0 0.7583195 0 0.5283085)
(417.066 12.76592 0 0.816406 0 0.5366753)
(409.33 13.10665 0 0.8827339 0 0.5452082)
(401.4717 13.47442 0 0.9582035 0 0.5538752)
(393.5114 13.86785 0 1.043752 0 0.5626514)
(385.4624 14.28481 0 1.140332 0 0.5715195)
(377.3309 14.7224 0 1.248879 0 0.5804699)
(369.1157 15.17681 0 1.370275 0 0.5895016)
(360.8098 15.64337 0 1.505304 0 0.5986204)
(352.4003 16.11647 0 1.654604 0 0.6078389)
(343.87 16.58964 0 1.818602 0 0.6171747)
(335.1989 17.05563 0 1.997463 0 0.6266498)
(326.3646 17.50647 0 2.191025 0 0.6362889)
(317.3438 17.93364 0 2.398741 0 0.6461181)
(308.1133 18.32819 0 2.61962 0 0.6561649)
(298.6502 18.68087 0 2.852178 0 0.6664563)
(288.9324 18.98234 0 3.094392 0 0.6770193)
(278.9389 19.22331 0 3.343667 0 0.6878804)
(268.6499 19.3946 0 3.596812 0 0.6990657)
(258.0463 19.48738 0 3.850023 0 0.7106008)
(247.1099 19.49317 0 4.098882 0 0.722511)
(235.8231 19.40396 0 4.338368 0 0.7348217)
(224.1692 19.21228 0 4.562873 0 0.7475579)
(212.1325 18.91124 0 4.766244 0 0.7607443)
(199.6989 18.49465 0 4.941832 0 0.7744038)
(186.8575 17.95712 0 5.08258 0 0.7885564)
(173.6028 17.29426 0 5.181135 0 0.8032162)
(159.9391 16.50311 0 5.230051 0 0.8183864)
(145.8861 15.58272 0 5.222094 0 0.8340519)
(131.4896 14.53528 0 5.150744 0 0.8501675)
(116.8348 13.3678 0 5.011008 0 0.8666416)
(102.0655 12.09445 0 4.800636 0 0.8833146)
(87.40324 10.73949 0 4.521801 0 0.8999355)
(73.16081 9.339795 0 4.182966 0 0.9161478)
(59.73101 7.944955 0 3.800147 0 0.9315)
(47.53494 6.612437 0 3.396213 0 0.945504)
(36.92898 5.396877 0 2.997152 0 0.9577402)
(28.10748 4.337147 0 2.626121 0 0.9679684)
(21.05962 3.448453 0 2.298296 0 0.9761817)
(15.60597 2.724001 0 2.019449 0 0.9825698)
(11.48077 2.143338 0 1.788056 0 0.9874269)
(8.409142 1.681676 0 1.59899 0 0.9910633)
(6.145752 1.314766 0 1.44558 0 0.9937586)
(4.497044 1.023372 0 1.323104 0 0.995735)
(3.290676 0.7861648 0 1.222004 0 0.9971938)
(2.446845 0.5989548 0 1.151715 0 0.9982177)
(1.79708 0.4274826 0 1.072976 0 0.9990258)
(1.479194 0.3144227 0 1.090445 0 0.9993681)
(1.061234 0.1586519 0 0.9502052 0 0.9999789)
(1.063281 0.06028701 0 1.041529 0 0.9998845)
(498.367 10.56433 0 0.4475656 0 0.4474556)
(498.2311 10.56356 0 0.4476681 0 0.4475468)
(497.9977 10.563 0 0.4478828 0 0.4477371)
(497.6861 10.56324 0 0.4482196 0 0.4480306)
(497.3003 10.56459 0 0.4486942 0 0.4484334)
(496.8305 10.56723 0 0.4493328 0 0.4489556)
(496.2553 10.57129 0 0.4501771 0 0.4496137)
(495.5441 10.57694 0 0.4512867 0 0.4504302)
(494.6607 10.58447 0 0.4527418 0 0.4514326)
(493.5684 10.59438 0 0.4546429 0 0.4526513)
(492.2346 10.60742 0 0.4571092 0 0.4541157)
(490.637 10.62467 0 0.4602747 0 0.4558512)
(488.7678 10.64759 0 0.4642857 0 0.4578768)
(486.6354 10.67808 0 0.4693019 0 0.4602066)
(484.2591 10.71865 0 0.4755115 0 0.4628587)
(481.6425 10.77246 0 0.4831756 0 0.4658764)
(478.6853 10.84244 0 0.4927282 0 0.4693633)
(475.0529 10.92859 0 0.5049362 0 0.4734975)
(470.4758 11.03127 0 0.5208523 0 0.4784248)
(465.0758 11.15465 0 0.5406069 0 0.48413)
(459.1538 11.30361 0 0.5643906 0 0.4904751)
(452.8379 11.47919 0 0.5925101 0 0.4973319)
(446.1898 11.68158 0 0.6253878 0 0.5046061)
(439.2512 11.91108 0 0.6635532 0 0.5122289)
(432.06 12.16809 0 0.7076286 0 0.5201455)
(424.6532 12.45299 0 0.7583195 0 0.5283085)
(417.066 12.76592 0 0.816406 0 0.5366753)
(409.33 13.10665 0 0.8827339 0 0.5452082)
(401.4717 13.47442 0 0.9582035 0 0.5538752)
(393.5114 13.86785 0 1.043752 0 0.5626514)
(385.4624 14.28481 0 1.140332 0 0.5715195)
(377.3309 14.7224 0 1.248879 0 0.5804699)
(369.1157 15.17681 0 1.370275 0 0.5895016)
(360.8098 15.64337 0 1.505304 0 0.5986204)
(352.4003 16.11647 0 1.654604 0 0.6078389)
(343.87 16.58964 0 1.818602 0 0.6171747)
(335.1989 17.05563 0 1.997463 0 0.6266498)
(326.3646 17.50647 0 2.191025 0 0.6362889)
(317.3438 17.93364 0 2.398741 0 0.6461181)
(308.1133 18.32819 0 2.61962 0 0.6561649)
(298.6502 18.68087 0 2.852178 0 0.6664563)
(288.9324 18.98234 0 3.094392 0 0.6770193)
(278.9389 19.22331 0 3.343667 0 0.6878804)
(268.6499 19.3946 0 3.596812 0 0.6990657)
(258.0463 19.48738 0 3.850023 0 0.7106008)
(247.1099 19.49317 0 4.098882 0 0.722511)
(235.8231 19.40396 0 4.338368 0 0.7348217)
(224.1692 19.21228 0 4.562873 0 0.7475579)
(212.1325 18.91124 0 4.766244 0 0.7607443)
(199.6989 18.49465 0 4.941832 0 0.7744038)
(186.8575 17.95712 0 5.08258 0 0.7885564)
(173.6028 17.29426 0 5.181135 0 0.8032162)
(159.9391 16.50311 0 5.230051 0 0.8183864)
(145.8861 15.58272 0 5.222094 0 0.8340519)
(131.4896 14.53528 0 5.150744 0 0.8501675)
(116.8348 13.3678 0 5.011008 0 0.8666416)
(102.0655 12.09445 0 4.800636 0 0.8833146)
(87.40324 10.73949 0 4.521801 0 0.8999355)
(73.16081 9.339795 0 4.182966 0 0.9161478)
(59.73101 7.944955 0 3.800147 0 0.9315)
(47.53494 6.612437 0 3.396213 0 0.945504)
(36.92898 5.396877 0 2.997152 0 0.9577402)
(28.10748 4.337147 0 2.626121 0 0.9679684)
(21.05962 3.448453 0 2.298296 0 0.9761817)
(15.60597 2.724001 0 2.019449 0 0.9825698)
(11.48077 2.143338 0 1.788056 0 0.9874269)
(8.409142 1.681676 0 1.59899 0 0.9910633)
(6.145752 1.314766 0 1.44558 0 0.9937586)
(4.497044 1.023372 0 1.323104 0 0.995735)
(3.290676 0.7861648 0 1.222004 0 0.9971938)
(2.446845 0.5989548 0 1.151715 0 0.9982177)
(1.79708 0.4274826 0 1.072976 0 0.9990258)
(1.479194 0.3144227 0 1.090445 0 0.9993681)
(1.061234 0.1586519 0 0.9502052 0 0.9999789)
(1.063281 0.06028701 0 1.041529 0 0.9998845)
)
;
    }
    wall
    {
        type            zeroGradient;
    }
    frontAndBack
    {
        type            empty;
    }
    middle
    {
        type            symmetryPlane;
        value           nonuniform List<symmTensor> 2((1.063282 0 0 1.04153 0 0.9998848) (1.06328 0 0 1.041529 0 0.9998842));
    }
}


// ************************************************************************* //
