/*--------------------------------*- C++ -*----------------------------------*\
| =========                 |                                                 |
| \\      /  F ield         | foam-extend: Open Source CFD                    |
|  \\    /   O peration     | Version:     4.0                                |
|   \\  /    A nd           | Web:         http://www.foam-extend.org         |
|    \\/     M anipulation  |                                                 |
\*---------------------------------------------------------------------------*/
FoamFile
{
    version     2.0;
    format      ascii;
    class       volSymmTensorField;
    location    "100";
    object      DiffC;
}
// * * * * * * * * * * * * * * * * * * * * * * * * * * * * * * * * * * * * * //

dimensions      [0 0 -1 0 0 0 0];

internalField   nonuniform List<symmTensor> 
150
(
(-8.550416 -0.04830043 0 0.006448348 0 0.005736075)
(-8.549072 -0.04836449 0 0.0064462 0 0.005734564)
(-5.146086 0.01426498 0 0.006084717 0 0.005370587)
(-5.144436 0.01431638 0 0.006085722 0 0.005368341)
(-3.418128 0.0422038 0 0.005723613 0 0.00482135)
(-3.417539 0.04224201 0 0.005724313 0 0.004820312)
(-2.717431 0.05147014 0 0.00561849 0 0.004391952)
(-2.71741 0.051495 0 0.005618972 0 0.004392127)
(-2.708755 0.05160678 0 0.00590267 0 0.004174085)
(-2.708997 0.05161809 0 0.005902908 0 0.00417505)
(-3.110149 0.04900284 0 0.006604613 0 0.004167371)
(-3.110474 0.04900292 0 0.00660463 0 0.004168542)
(-3.687012 0.04768332 0 0.007681671 0 0.004311351)
(-3.687309 0.04767688 0 0.007681549 0 0.004312263)
(-4.247318 0.04986943 0 0.009035189 0 0.004513283)
(-4.247521 0.04986205 0 0.009035039 0 0.004513747)
(-4.639828 0.05645169 0 0.01052581 0 0.004672555)
(-4.639921 0.05644804 0 0.01052574 0 0.004672641)
(-4.756625 0.06740408 0 0.01199514 0 0.004702844)
(-4.756648 0.06740657 0 0.0119952 0 0.004702744)
(-4.539667 0.08220489 0 0.01329901 0 0.004553119)
(-4.539686 0.08221318 0 0.01329922 0 0.004552996)
(-3.990261 0.1003197 0 0.01435539 0 0.004228626)
(-3.99032 0.1003313 0 0.01435571 0 0.00422852)
(-3.18504 0.1216766 0 0.01520854 0 0.003813433)
(-3.185152 0.1216883 0 0.01520891 0 0.003813308)
(-2.320051 0.1466693 0 0.01611908 0 0.003495514)
(-2.320221 0.1466786 0 0.01611943 0 0.003495406)
(-1.851691 0.1739269 0 0.01770587 0 0.003583344)
(-1.851884 0.1739326 0 0.01770615 0 0.003583354)
(-2.914032 0.1890327 0 0.02109277 0 0.004437874)
(-2.914166 0.1890342 0 0.02109295 0 0.004437945)
(-6.685346 0.1605682 0 0.02764374 0 0.005983163)
(-6.685417 0.1605653 0 0.02764382 0 0.005983194)
(-8.76284 0.1400814 0 0.0356067 0 0.006716964)
(-8.763097 0.1400756 0 0.03560673 0 0.006717063)
(-6.153895 0.1614142 0 0.03161045 0 0.00549767)
(-6.154103 0.1614071 0 0.03161038 0 0.005497747)
(-2.326816 0.1823475 0 0.02855803 0 0.003294102)
(-2.32667 0.1823409 0 0.02855776 0 0.003294056)
(-0.7810326 0.1627085 0 0.0267101 0 0.001603588)
(-0.7811604 0.1627022 0 0.02670988 0 0.001603704)
(-0.07281168 0.138243 0 0.02573233 0 0.0005183753)
(-0.07294471 0.1382371 0 0.02573221 0 0.0005185388)
(0.3464838 0.1174866 0 0.02529688 0 -0.0001626517)
(0.3463714 0.1174805 0 0.02529673 0 -0.0001628142)
(0.6476447 0.1001999 0 0.02513279 0 -0.000607871)
(0.6475112 0.1001934 0 0.02513264 0 -0.0006079865)
(0.8729321 0.08477292 0 0.02506478 0 -0.0009091307)
(0.8727746 0.08476783 0 0.02506465 0 -0.0009092111)
(1.030367 0.07006262 0 0.02498411 0 -0.00110983)
(1.030692 0.07007099 0 0.02498398 0 -0.001110041)
(1.12518 0.05553709 0 0.02481591 0 -0.001231142)
(1.124777 0.05553368 0 0.02481607 0 -0.0012311)
(1.163842 0.04099027 0 0.02450121 0 -0.001286546)
(1.163428 0.04098586 0 0.02450154 0 -0.001286387)
(1.155423 0.02643186 0 0.02398958 0 -0.001287108)
(1.155684 0.0264459 0 0.02398979 0 -0.001287505)
(1.110466 0.01199129 0 0.02323767 0 -0.00124492)
(1.11026 0.01197506 0 0.02323618 0 -0.001245071)
(1.038662 -0.0021874 0 0.02220701 0 -0.001171331)
(1.038567 -0.002182395 0 0.02220847 0 -0.00117146)
(0.9494934 -0.01582312 0 0.0208754 0 -0.00107573)
(0.9492342 -0.01583432 0 0.02087382 0 -0.001075827)
(0.8517113 -0.02869129 0 0.01922319 0 -0.0009690052)
(0.8517161 -0.02869664 0 0.01922436 0 -0.0009693044)
(0.7517374 -0.04053045 0 0.01725689 0 -0.0008582422)
(0.7516291 -0.04052732 0 0.01725542 0 -0.0008581755)
(0.6551998 -0.05111002 0 0.01498203 0 -0.000749974)
(0.6553511 -0.05109666 0 0.01498371 0 -0.000750101)
(0.5663967 -0.06018219 0 0.01243569 0 -0.0006483142)
(0.5662737 -0.06020407 0 0.01243423 0 -0.0006485117)
(0.4862789 -0.06767311 0 0.009654398 0 -0.0005563637)
(0.4862337 -0.06765818 0 0.009654485 0 -0.0005564033)
(0.416731 -0.07342539 0 0.006697222 0 -0.0004753843)
(0.4167933 -0.07343795 0 0.006695817 0 -0.0004754216)
(0.3575381 -0.07749105 0 0.003621916 0 -0.0004054629)
(0.3575507 -0.07749031 0 0.00362323 0 -0.0004053646)
(0.3080428 -0.07986763 0 0.0005014145 0 -0.0003461876)
(0.3080259 -0.07987835 0 0.0005001854 0 -0.0003463529)
(0.2669047 -0.08069928 0 -0.002600204 0 -0.0002966315)
(0.2668655 -0.08069201 0 -0.002600178 0 -0.0002963078)
(0.2332051 -0.0800893 0 -0.005610313 0 -0.0002550266)
(0.2333137 -0.08009122 0 -0.005611301 0 -0.000255159)
(0.2054882 -0.07827807 0 -0.008471362 0 -0.0002205711)
(0.2055139 -0.07828252 0 -0.008471053 0 -0.0002205082)
(0.1825674 -0.07543 0 -0.01112561 0 -0.000191909)
(0.1826818 -0.07542282 0 -0.01112541 0 -0.0001917675)
(0.1636522 -0.07175953 0 -0.01352769 0 -0.0001677754)
(0.1635649 -0.07175095 0 -0.01352712 0 -0.0001676644)
(0.1476739 -0.06746633 0 -0.01564221 0 -0.0001475134)
(0.1477495 -0.06747099 0 -0.01564246 0 -0.0001473813)
(0.1343842 -0.06274499 0 -0.017444 0 -0.0001305525)
(0.1344626 -0.0627454 0 -0.01744445 0 -0.0001305975)
(0.1234574 -0.05774756 0 -0.0189146 0 -0.0001165459)
(0.1234662 -0.0577459 0 -0.01891351 0 -0.0001163715)
(0.114646 -0.0525799 0 -0.02004186 0 -0.000105479)
(0.1145881 -0.05258293 0 -0.02004219 0 -0.0001055001)
(0.1082172 -0.04735609 0 -0.02082009 0 -9.750557e-05)
(0.108222 -0.04734373 0 -0.02081899 0 -9.732495e-05)
(0.1045726 -0.04207566 0 -0.02123888 0 -9.297649e-05)
(0.1045424 -0.04208686 0 -0.02123985 0 -9.302762e-05)
(0.1044537 -0.03675625 0 -0.02128345 0 -9.298286e-05)
(0.1044731 -0.03675363 0 -0.02128343 0 -9.297641e-05)
(0.108981 -0.03128466 0 -0.02091913 0 -9.871651e-05)
(0.1089208 -0.03128159 0 -0.02091848 0 -9.870736e-05)
(0.1195031 -0.02551229 0 -0.02008545 0 -0.0001117938)
(0.1194383 -0.02551667 0 -0.02008631 0 -0.0001117909)
(0.1378731 -0.01919185 0 -0.01868528 0 -0.0001342496)
(0.1378792 -0.01919393 0 -0.018686 0 -0.0001342583)
(0.1657519 -0.01207076 0 -0.01658687 0 -0.0001680462)
(0.1657336 -0.01207276 0 -0.01658789 0 -0.0001680505)
(0.2038364 -0.003904537 0 -0.01364549 0 -0.0002137958)
(0.203831 -0.003904426 0 -0.013646 0 -0.0002137972)
(0.2502517 0.005249656 0 -0.009790266 0 -0.000269297)
(0.2502111 0.005243721 0 -0.009791606 0 -0.0002692879)
(0.2984383 0.01479994 0 -0.005164587 0 -0.0003271202)
(0.2984184 0.01479815 0 -0.005165655 0 -0.0003271233)
(0.3366677 0.02342748 0 -0.0002711072 0 -0.0003739633)
(0.336651 0.02342593 0 -0.0002718695 0 -0.0003739131)
(0.3512655 0.02936889 0 0.00405007 0 -0.0003941636)
(0.3512517 0.02936764 0 0.004049457 0 -0.0003941135)
(0.3341776 0.03130704 0 0.006955843 0 -0.0003782544)
(0.3341652 0.03130559 0 0.006955345 0 -0.000378236)
(0.2891958 0.02927722 0 0.008082527 0 -0.0003298794)
(0.2891919 0.02927658 0 0.008082315 0 -0.0003299045)
(0.2299769 0.02467094 0 0.007735032 0 -0.000264199)
(0.2299722 0.02467061 0 0.007734637 0 -0.0002641571)
(0.1711713 0.01925767 0 0.006571773 0 -0.0001977906)
(0.1711681 0.01925707 0 0.00657168 0 -0.0001978475)
(0.1218844 0.014332 0 0.005220349 0 -0.0001416354)
(0.1218835 0.01433199 0 0.005220198 0 -0.0001415908)
(0.08421612 0.01032596 0 0.003954089 0 -9.83181e-05)
(0.08421525 0.01032576 0 0.00395391 0 -9.830814e-05)
(0.05767758 0.007444529 0 0.00306229 0 -6.763582e-05)
(0.05767631 0.007444277 0 0.003062019 0 -6.768211e-05)
(0.0376405 0.004937762 0 0.001975237 0 -4.413282e-05)
(0.03763949 0.004937495 0 0.001975328 0 -4.43008e-05)
(0.02744302 0.004018944 0 0.002327849 0 -3.282431e-05)
(0.02744253 0.004018761 0 0.002327287 0 -3.308021e-05)
(0.01388871 0.001481737 0 -0.0002844692 0 -1.565378e-05)
(0.01388942 0.001481921 0 -0.0002843764 0 -1.575558e-05)
(0.01934862 0.003560046 0 0.005312036 0 -2.703315e-05)
(0.01934976 0.003560467 0 0.005312293 0 -2.672016e-05)
(-0.004021505 -0.001771672 0 -0.007608441 0 1.148506e-05)
(-0.004020671 -0.001771537 0 -0.007607619 0 1.259942e-05)
(0.01916347 0.002838249 0 0.01036531 0 -3.17567e-05)
(0.01916297 0.002837965 0 0.01036503 0 -3.218745e-05)
(-8.481681e-05 -0.0007963262 0 -0.003772308 0 3.828291e-06)
(-8.431037e-05 -0.0007962337 0 -0.003772205 0 3.967223e-06)
)
;

boundaryField
{
    leftandright
    {
        type            cyclic;
        value           nonuniform List<symmTensor> 
150
(
(-8.549744 -0.04833246 0 0.006447274 0 0.005735319)
(-5.145261 0.01429068 0 0.00608522 0 0.005369464)
(-3.417834 0.04222291 0 0.005723963 0 0.004820831)
(-2.717421 0.05148257 0 0.005618731 0 0.004392039)
(-2.708876 0.05161243 0 0.005902789 0 0.004174567)
(-3.110312 0.04900288 0 0.006604621 0 0.004167956)
(-3.68716 0.0476801 0 0.00768161 0 0.004311807)
(-4.24742 0.04986574 0 0.009035114 0 0.004513515)
(-4.639875 0.05644986 0 0.01052577 0 0.004672598)
(-4.756636 0.06740533 0 0.01199517 0 0.004702794)
(-4.539676 0.08220903 0 0.01329912 0 0.004553058)
(-3.99029 0.1003255 0 0.01435555 0 0.004228573)
(-3.185096 0.1216824 0 0.01520873 0 0.003813371)
(-2.320136 0.146674 0 0.01611926 0 0.00349546)
(-1.851788 0.1739298 0 0.01770601 0 0.003583349)
(-2.914099 0.1890334 0 0.02109286 0 0.00443791)
(-6.685381 0.1605667 0 0.02764378 0 0.005983179)
(-8.762969 0.1400785 0 0.03560672 0 0.006717013)
(-6.153999 0.1614107 0 0.03161042 0 0.005497709)
(-2.326743 0.1823442 0 0.02855789 0 0.003294079)
(-0.7810965 0.1627054 0 0.02670999 0 0.001603646)
(-0.07287819 0.13824 0 0.02573227 0 0.0005184571)
(0.3464276 0.1174836 0 0.0252968 0 -0.000162733)
(0.647578 0.1001966 0 0.02513271 0 -0.0006079288)
(0.8728534 0.08477038 0 0.02506472 0 -0.0009091709)
(1.030529 0.07006681 0 0.02498404 0 -0.001109936)
(1.124979 0.05553539 0 0.02481599 0 -0.001231121)
(1.163635 0.04098806 0 0.02450138 0 -0.001286466)
(1.155554 0.02643888 0 0.02398969 0 -0.001287307)
(1.110363 0.01198318 0 0.02323693 0 -0.001244995)
(1.038614 -0.002184898 0 0.02220774 0 -0.001171396)
(0.9493638 -0.01582872 0 0.02087461 0 -0.001075778)
(0.8517137 -0.02869397 0 0.01922377 0 -0.0009691548)
(0.7516833 -0.04052888 0 0.01725616 0 -0.0008582088)
(0.6552755 -0.05110334 0 0.01498287 0 -0.0007500375)
(0.5663352 -0.06019313 0 0.01243496 0 -0.0006484129)
(0.4862563 -0.06766565 0 0.009654441 0 -0.0005563835)
(0.4167621 -0.07343167 0 0.00669652 0 -0.000475403)
(0.3575444 -0.07749068 0 0.003622573 0 -0.0004054138)
(0.3080344 -0.07987299 0 0.0005007999 0 -0.0003462703)
(0.2668851 -0.08069565 0 -0.002600191 0 -0.0002964697)
(0.2332594 -0.08009026 0 -0.005610807 0 -0.0002550928)
(0.2055011 -0.0782803 0 -0.008471207 0 -0.0002205396)
(0.1826246 -0.07542641 0 -0.01112551 0 -0.0001918382)
(0.1636086 -0.07175524 0 -0.01352741 0 -0.0001677199)
(0.1477117 -0.06746866 0 -0.01564233 0 -0.0001474473)
(0.1344234 -0.0627452 0 -0.01744423 0 -0.000130575)
(0.1234618 -0.05774673 0 -0.01891406 0 -0.0001164587)
(0.114617 -0.05258141 0 -0.02004202 0 -0.0001054896)
(0.1082196 -0.04734991 0 -0.02081954 0 -9.741526e-05)
(0.1045575 -0.04208126 0 -0.02123937 0 -9.300205e-05)
(0.1044634 -0.03675494 0 -0.02128344 0 -9.297964e-05)
(0.1089509 -0.03128312 0 -0.02091881 0 -9.871193e-05)
(0.1194707 -0.02551448 0 -0.02008588 0 -0.0001117923)
(0.1378761 -0.01919289 0 -0.01868564 0 -0.000134254)
(0.1657427 -0.01207176 0 -0.01658738 0 -0.0001680483)
(0.2038337 -0.003904482 0 -0.01364574 0 -0.0002137965)
(0.2502314 0.005246689 0 -0.009790936 0 -0.0002692924)
(0.2984284 0.01479904 0 -0.005165121 0 -0.0003271217)
(0.3366593 0.0234267 0 -0.0002714883 0 -0.0003739382)
(0.3512586 0.02936827 0 0.004049764 0 -0.0003941385)
(0.3341714 0.03130632 0 0.006955594 0 -0.0003782452)
(0.2891939 0.0292769 0 0.008082421 0 -0.000329892)
(0.2299746 0.02467078 0 0.007734835 0 -0.0002641781)
(0.1711697 0.01925737 0 0.006571727 0 -0.000197819)
(0.121884 0.01433199 0 0.005220274 0 -0.0001416131)
(0.08421568 0.01032586 0 0.003954 0 -9.831312e-05)
(0.05767694 0.007444403 0 0.003062154 0 -6.765896e-05)
(0.03763999 0.004937629 0 0.001975283 0 -4.421681e-05)
(0.02744278 0.004018852 0 0.002327568 0 -3.295226e-05)
(0.01388907 0.001481829 0 -0.0002844228 0 -1.570468e-05)
(0.01934919 0.003560256 0 0.005312164 0 -2.687666e-05)
(-0.004021088 -0.001771604 0 -0.00760803 0 1.204224e-05)
(0.01916322 0.002838107 0 0.01036517 0 -3.197208e-05)
(-8.456359e-05 -0.00079628 0 -0.003772257 0 3.897757e-06)
(-8.549744 -0.04833246 0 0.006447274 0 0.005735319)
(-5.145261 0.01429068 0 0.00608522 0 0.005369464)
(-3.417834 0.04222291 0 0.005723963 0 0.004820831)
(-2.717421 0.05148257 0 0.005618731 0 0.004392039)
(-2.708876 0.05161243 0 0.005902789 0 0.004174567)
(-3.110312 0.04900288 0 0.006604621 0 0.004167956)
(-3.68716 0.0476801 0 0.00768161 0 0.004311807)
(-4.24742 0.04986574 0 0.009035114 0 0.004513515)
(-4.639875 0.05644986 0 0.01052577 0 0.004672598)
(-4.756636 0.06740533 0 0.01199517 0 0.004702794)
(-4.539676 0.08220903 0 0.01329912 0 0.004553058)
(-3.99029 0.1003255 0 0.01435555 0 0.004228573)
(-3.185096 0.1216824 0 0.01520873 0 0.003813371)
(-2.320136 0.146674 0 0.01611926 0 0.00349546)
(-1.851788 0.1739298 0 0.01770601 0 0.003583349)
(-2.914099 0.1890334 0 0.02109286 0 0.00443791)
(-6.685381 0.1605667 0 0.02764378 0 0.005983179)
(-8.762969 0.1400785 0 0.03560672 0 0.006717013)
(-6.153999 0.1614107 0 0.03161042 0 0.005497709)
(-2.326743 0.1823442 0 0.02855789 0 0.003294079)
(-0.7810965 0.1627054 0 0.02670999 0 0.001603646)
(-0.07287819 0.13824 0 0.02573227 0 0.0005184571)
(0.3464276 0.1174836 0 0.0252968 0 -0.000162733)
(0.647578 0.1001966 0 0.02513271 0 -0.0006079288)
(0.8728534 0.08477038 0 0.02506472 0 -0.0009091709)
(1.030529 0.07006681 0 0.02498404 0 -0.001109936)
(1.124979 0.05553539 0 0.02481599 0 -0.001231121)
(1.163635 0.04098806 0 0.02450138 0 -0.001286466)
(1.155554 0.02643888 0 0.02398969 0 -0.001287307)
(1.110363 0.01198318 0 0.02323693 0 -0.001244995)
(1.038614 -0.002184898 0 0.02220774 0 -0.001171396)
(0.9493638 -0.01582872 0 0.02087461 0 -0.001075778)
(0.8517137 -0.02869397 0 0.01922377 0 -0.0009691548)
(0.7516833 -0.04052888 0 0.01725616 0 -0.0008582088)
(0.6552755 -0.05110334 0 0.01498287 0 -0.0007500375)
(0.5663352 -0.06019313 0 0.01243496 0 -0.0006484129)
(0.4862563 -0.06766565 0 0.009654441 0 -0.0005563835)
(0.4167621 -0.07343167 0 0.00669652 0 -0.000475403)
(0.3575444 -0.07749068 0 0.003622573 0 -0.0004054138)
(0.3080344 -0.07987299 0 0.0005007999 0 -0.0003462703)
(0.2668851 -0.08069565 0 -0.002600191 0 -0.0002964697)
(0.2332594 -0.08009026 0 -0.005610807 0 -0.0002550928)
(0.2055011 -0.0782803 0 -0.008471207 0 -0.0002205396)
(0.1826246 -0.07542641 0 -0.01112551 0 -0.0001918382)
(0.1636086 -0.07175524 0 -0.01352741 0 -0.0001677199)
(0.1477117 -0.06746866 0 -0.01564233 0 -0.0001474473)
(0.1344234 -0.0627452 0 -0.01744423 0 -0.000130575)
(0.1234618 -0.05774673 0 -0.01891406 0 -0.0001164587)
(0.114617 -0.05258141 0 -0.02004202 0 -0.0001054896)
(0.1082196 -0.04734991 0 -0.02081954 0 -9.741526e-05)
(0.1045575 -0.04208126 0 -0.02123937 0 -9.300205e-05)
(0.1044634 -0.03675494 0 -0.02128344 0 -9.297964e-05)
(0.1089509 -0.03128312 0 -0.02091881 0 -9.871193e-05)
(0.1194707 -0.02551448 0 -0.02008588 0 -0.0001117923)
(0.1378761 -0.01919289 0 -0.01868564 0 -0.000134254)
(0.1657427 -0.01207176 0 -0.01658738 0 -0.0001680483)
(0.2038337 -0.003904482 0 -0.01364574 0 -0.0002137965)
(0.2502314 0.005246689 0 -0.009790936 0 -0.0002692924)
(0.2984284 0.01479904 0 -0.005165121 0 -0.0003271217)
(0.3366593 0.0234267 0 -0.0002714883 0 -0.0003739382)
(0.3512586 0.02936827 0 0.004049764 0 -0.0003941385)
(0.3341714 0.03130632 0 0.006955594 0 -0.0003782452)
(0.2891939 0.0292769 0 0.008082421 0 -0.000329892)
(0.2299746 0.02467078 0 0.007734835 0 -0.0002641781)
(0.1711697 0.01925737 0 0.006571727 0 -0.000197819)
(0.121884 0.01433199 0 0.005220274 0 -0.0001416131)
(0.08421568 0.01032586 0 0.003954 0 -9.831312e-05)
(0.05767694 0.007444403 0 0.003062154 0 -6.765896e-05)
(0.03763999 0.004937629 0 0.001975283 0 -4.421681e-05)
(0.02744278 0.004018852 0 0.002327568 0 -3.295226e-05)
(0.01388907 0.001481829 0 -0.0002844228 0 -1.570468e-05)
(0.01934919 0.003560256 0 0.005312164 0 -2.687666e-05)
(-0.004021088 -0.001771604 0 -0.00760803 0 1.204224e-05)
(0.01916322 0.002838107 0 0.01036517 0 -3.197208e-05)
(-8.456359e-05 -0.00079628 0 -0.003772257 0 3.897757e-06)
)
;
    }
    wall
    {
        type            calculated;
        value           nonuniform List<symmTensor> 2((-8.550416 -0.04830043 0 0.006448348 0 0.005736075) (-8.549072 -0.04836449 0 0.0064462 0 0.005734564));
    }
    frontAndBack
    {
        type            empty;
    }
    middle
    {
        type            symmetryPlane;
        value           nonuniform List<symmTensor> 2((-8.481681e-05 0 0 -0.003772308 0 3.828291e-06) (-8.431037e-05 0 0 -0.003772205 0 3.967223e-06));
    }
}


// ************************************************************************* //
