/*--------------------------------*- C++ -*----------------------------------*\
| =========                 |                                                 |
| \\      /  F ield         | foam-extend: Open Source CFD                    |
|  \\    /   O peration     | Version:     4.0                                |
|   \\  /    A nd           | Web:         http://www.foam-extend.org         |
|    \\/     M anipulation  |                                                 |
\*---------------------------------------------------------------------------*/
FoamFile
{
    version     2.0;
    format      ascii;
    class       volScalarField;
    location    "100";
    object      epsilon;
}
// * * * * * * * * * * * * * * * * * * * * * * * * * * * * * * * * * * * * * //

dimensions      [0 2 -3 0 0 0 0];

internalField   nonuniform List<scalar> 
150
(
26.84034
26.84035
25.24349
25.24349
23.75637
23.75637
22.38614
22.38615
21.14057
21.14057
20.02798
20.02798
19.05732
19.05732
18.23798
18.23798
17.57955
17.57955
17.09145
17.09145
16.78235
16.78235
16.65959
16.65959
16.72844
16.72844
16.99159
16.99159
17.44872
17.44872
18.09643
18.09643
18.92851
18.92851
19.93627
19.93627
21.09742
21.09742
22.34419
22.34419
23.61472
23.61472
24.85028
24.85028
25.99736
25.99736
27.00961
27.00962
27.84946
27.84946
28.48917
28.48918
28.91131
28.91131
29.10851
29.10851
29.08267
29.08267
28.84367
28.84367
28.40782
28.40782
27.79611
27.79611
27.03257
27.03257
26.14265
26.14265
25.15194
25.15194
24.0851
24.0851
22.96504
22.96504
21.81243
21.81243
20.64538
20.64538
19.47936
19.47936
18.32718
18.32718
17.19922
17.19922
16.10356
16.10356
15.04627
15.04627
14.03166
14.03166
13.06255
13.06255
12.14053
12.14053
11.26614
11.26614
10.43915
10.43915
9.65868
9.65868
8.92336
8.92336
8.231492
8.231492
7.581135
7.581135
6.97021
6.97021
6.396579
6.396579
5.858115
5.858115
5.35277
5.35277
4.878636
4.878636
4.434007
4.434007
4.017438
4.017438
3.627794
3.627794
3.264284
3.264284
2.926459
2.926459
2.614165
2.614165
2.327463
2.327463
2.066511
2.066511
1.831447
1.831447
1.622278
1.622278
1.438808
1.438808
1.280655
1.280655
1.147511
1.147511
1.039311
1.039311
0.9562613
0.9562613
0.8990206
0.8990206
0.8689861
0.8689861
)
;

boundaryField
{
    leftandright
    {
        type            cyclic;
        value           nonuniform List<scalar> 
150
(
26.84034
25.24349
23.75637
22.38614
21.14057
20.02798
19.05732
18.23798
17.57955
17.09145
16.78235
16.65959
16.72844
16.99159
17.44872
18.09643
18.92851
19.93627
21.09742
22.34419
23.61472
24.85028
25.99736
27.00962
27.84946
28.48917
28.91131
29.10851
29.08267
28.84367
28.40782
27.79611
27.03257
26.14265
25.15194
24.0851
22.96504
21.81243
20.64538
19.47936
18.32718
17.19922
16.10356
15.04627
14.03166
13.06255
12.14053
11.26614
10.43915
9.65868
8.92336
8.231492
7.581135
6.97021
6.396579
5.858115
5.35277
4.878636
4.434007
4.017438
3.627794
3.264284
2.926459
2.614165
2.327463
2.066511
1.831447
1.622278
1.438808
1.280655
1.147511
1.039311
0.9562613
0.8990206
0.8689861
26.84034
25.24349
23.75637
22.38614
21.14057
20.02798
19.05732
18.23798
17.57955
17.09145
16.78235
16.65959
16.72844
16.99159
17.44872
18.09643
18.92851
19.93627
21.09742
22.34419
23.61472
24.85028
25.99736
27.00962
27.84946
28.48917
28.91131
29.10851
29.08267
28.84367
28.40782
27.79611
27.03257
26.14265
25.15194
24.0851
22.96504
21.81243
20.64538
19.47936
18.32718
17.19922
16.10356
15.04627
14.03166
13.06255
12.14053
11.26614
10.43915
9.65868
8.92336
8.231492
7.581135
6.97021
6.396579
5.858115
5.35277
4.878636
4.434007
4.017438
3.627794
3.264284
2.926459
2.614165
2.327463
2.066511
1.831447
1.622278
1.438808
1.280655
1.147511
1.039311
0.9562613
0.8990206
0.8689861
)
;
    }
    wall
    {
        type            groovyBC;
        refValue        nonuniform List<scalar> 2(27.71145 27.71145);
        refGradient     uniform 0;
        valueFraction   uniform 1;
        value           nonuniform List<scalar> 2(27.71145 27.71145);
        valueExpression "2*nu*internalField(k)/sqr(mag(delta()))";
        gradientExpression "0";
        fractionExpression "1";
        evaluateDuringConstruction 0;
        variables       "";
        timelines       (
);
        lookuptables    (
);
    }
    frontAndBack
    {
        type            empty;
    }
    middle
    {
        type            symmetryPlane;
        value           nonuniform List<scalar> 2(0.8689861 0.8689861);
    }
}


// ************************************************************************* //
