/*--------------------------------*- C++ -*----------------------------------*\
| =========                 |                                                 |
| \\      /  F ield         | foam-extend: Open Source CFD                    |
|  \\    /   O peration     | Version:     4.0                                |
|   \\  /    A nd           | Web:         http://www.foam-extend.org         |
|    \\/     M anipulation  |                                                 |
\*---------------------------------------------------------------------------*/
FoamFile
{
    version     2.0;
    format      ascii;
    class       volScalarField;
    location    "100";
    object      epsilonPlus;
}
// * * * * * * * * * * * * * * * * * * * * * * * * * * * * * * * * * * * * * //

dimensions      [0 4 -4 0 0 0 0];

internalField   nonuniform List<scalar> 
150
(
0.149113
0.149113
0.1402416
0.1402416
0.1319798
0.1319798
0.1243675
0.1243675
0.1174476
0.1174476
0.1112666
0.1112666
0.105874
0.105874
0.1013221
0.1013221
0.09766416
0.09766417
0.09495248
0.09495249
0.09323529
0.0932353
0.09255325
0.09255326
0.09293576
0.09293576
0.09439771
0.09439772
0.09693735
0.09693736
0.1005357
0.1005357
0.1051584
0.1051584
0.110757
0.110757
0.1172079
0.1172079
0.1241344
0.1241344
0.1311929
0.1311929
0.1380571
0.1380571
0.1444298
0.1444298
0.1500534
0.1500534
0.1547192
0.1547192
0.1582732
0.1582732
0.1606184
0.1606184
0.161714
0.161714
0.1615704
0.1615704
0.1602426
0.1602426
0.1578212
0.1578212
0.1544229
0.1544229
0.1501809
0.1501809
0.1452369
0.1452369
0.139733
0.139733
0.1338061
0.1338061
0.1275836
0.1275836
0.1211802
0.1211802
0.1146966
0.1146966
0.1082186
0.1082186
0.1018177
0.1018177
0.09555124
0.09555124
0.08946423
0.08946423
0.08359038
0.08359038
0.07795366
0.07795366
0.07256973
0.07256973
0.06744737
0.06744737
0.06258968
0.06258968
0.0579953
0.0579953
0.05365933
0.05365933
0.04957422
0.04957422
0.04573051
0.04573051
0.04211742
0.04211742
0.03872339
0.03872339
0.03553655
0.03553655
0.03254508
0.03254508
0.02973761
0.02973761
0.02710353
0.02710353
0.02463337
0.02463337
0.0223191
0.0223191
0.02015441
0.02015441
0.01813491
0.01813491
0.0162581
0.0162581
0.01452314
0.01452314
0.01293035
0.01293035
0.01148062
0.01148062
0.01017471
0.01017471
0.009012657
0.009012657
0.007993376
0.007993376
0.007114749
0.007114749
0.006375064
0.006375063
0.00577395
0.00577395
0.005312563
0.005312563
0.004994559
0.004994559
0.004827701
0.004827701
)
;

boundaryField
{
    leftandright
    {
        type            cyclic;
        value           nonuniform List<scalar> 
150
(
0.149113
0.1402416
0.1319798
0.1243675
0.1174476
0.1112666
0.105874
0.1013221
0.09766416
0.09495248
0.0932353
0.09255325
0.09293576
0.09439771
0.09693735
0.1005357
0.1051584
0.110757
0.1172079
0.1241344
0.1311929
0.1380571
0.1444298
0.1500534
0.1547192
0.1582732
0.1606184
0.161714
0.1615704
0.1602426
0.1578212
0.1544229
0.1501809
0.1452369
0.139733
0.1338061
0.1275836
0.1211802
0.1146966
0.1082186
0.1018177
0.09555124
0.08946423
0.08359038
0.07795366
0.07256973
0.06744737
0.06258968
0.0579953
0.05365933
0.04957422
0.04573051
0.04211742
0.03872339
0.03553655
0.03254508
0.02973761
0.02710353
0.02463337
0.0223191
0.02015441
0.01813491
0.0162581
0.01452314
0.01293035
0.01148062
0.01017471
0.009012657
0.007993376
0.007114749
0.006375064
0.00577395
0.005312563
0.004994559
0.004827701
0.149113
0.1402416
0.1319798
0.1243675
0.1174476
0.1112666
0.105874
0.1013221
0.09766416
0.09495248
0.0932353
0.09255325
0.09293576
0.09439771
0.09693735
0.1005357
0.1051584
0.110757
0.1172079
0.1241344
0.1311929
0.1380571
0.1444298
0.1500534
0.1547192
0.1582732
0.1606184
0.161714
0.1615704
0.1602426
0.1578212
0.1544229
0.1501809
0.1452369
0.139733
0.1338061
0.1275836
0.1211802
0.1146966
0.1082186
0.1018177
0.09555124
0.08946423
0.08359038
0.07795366
0.07256973
0.06744737
0.06258968
0.0579953
0.05365933
0.04957422
0.04573051
0.04211742
0.03872339
0.03553655
0.03254508
0.02973761
0.02710353
0.02463337
0.0223191
0.02015441
0.01813491
0.0162581
0.01452314
0.01293035
0.01148062
0.01017471
0.009012657
0.007993376
0.007114749
0.006375064
0.00577395
0.005312563
0.004994559
0.004827701
)
;
    }
    wall
    {
        type            calculated;
        value           nonuniform List<scalar> 2(0.1539525 0.1539525);
    }
    frontAndBack
    {
        type            empty;
    }
    middle
    {
        type            symmetryPlane;
        value           nonuniform List<scalar> 2(0.004827701 0.004827701);
    }
}


// ************************************************************************* //
