/*--------------------------------*- C++ -*----------------------------------*\
| =========                 |                                                 |
| \\      /  F ield         | foam-extend: Open Source CFD                    |
|  \\    /   O peration     | Version:     4.0                                |
|   \\  /    A nd           | Web:         http://www.foam-extend.org         |
|    \\/     M anipulation  |                                                 |
\*---------------------------------------------------------------------------*/
FoamFile
{
    version     2.0;
    format      ascii;
    class       volScalarField;
    location    "100";
    object      f;
}
// * * * * * * * * * * * * * * * * * * * * * * * * * * * * * * * * * * * * * //

dimensions      [0 0 -1 0 0 0 0];

internalField   nonuniform List<scalar> 
150
(
0.01095648
0.01095648
0.03319288
0.03319288
0.05632088
0.05632088
0.08037652
0.08037652
0.1053962
0.1053962
0.1314164
0.1314164
0.1584729
0.1584729
0.1866007
0.1866007
0.2158324
0.2158324
0.2461976
0.2461976
0.2777215
0.2777215
0.3104232
0.3104232
0.3443132
0.3443132
0.3793915
0.3793915
0.4156438
0.4156438
0.4530385
0.4530385
0.491522
0.491522
0.5310134
0.5310134
0.5714189
0.5714189
0.612697
0.612697
0.6547869
0.6547869
0.6976091
0.6976091
0.741068
0.741068
0.7850535
0.7850535
0.8294429
0.8294428
0.8741032
0.8741032
0.9188934
0.9188934
0.9636664
0.9636664
1.008271
1.008271
1.052555
1.052555
1.096366
1.096366
1.139552
1.139552
1.181967
1.181967
1.223466
1.223466
1.263912
1.263912
1.303175
1.303175
1.341128
1.341128
1.377655
1.377655
1.412646
1.412646
1.445998
1.445998
1.477617
1.477617
1.507415
1.507415
1.535313
1.535313
1.56124
1.56124
1.585132
1.585132
1.606931
1.606931
1.626589
1.626589
1.644065
1.644065
1.659323
1.659323
1.672338
1.672338
1.683089
1.683089
1.691566
1.691566
1.697763
1.697763
1.701684
1.701684
1.703341
1.703341
1.702752
1.702752
1.699945
1.699945
1.69496
1.69496
1.687846
1.687846
1.678669
1.678669
1.667519
1.667519
1.654502
1.654502
1.639748
1.639748
1.623421
1.623421
1.605722
1.605722
1.586898
1.586898
1.567255
1.567255
1.547167
1.547167
1.52709
1.52709
1.507576
1.507576
1.489291
1.489291
1.472987
1.472987
1.459471
1.459471
1.44959
1.44959
1.444208
1.444208
)
;

boundaryField
{
    leftandright
    {
        type            cyclic;
        value           nonuniform List<scalar> 
150
(
0.01095648
0.03319288
0.05632088
0.08037652
0.1053962
0.1314164
0.1584729
0.1866007
0.2158324
0.2461976
0.2777215
0.3104232
0.3443132
0.3793915
0.4156438
0.4530385
0.491522
0.5310134
0.5714189
0.612697
0.6547869
0.6976091
0.741068
0.7850535
0.8294429
0.8741032
0.9188934
0.9636664
1.008271
1.052555
1.096366
1.139552
1.181967
1.223466
1.263912
1.303175
1.341128
1.377655
1.412646
1.445998
1.477617
1.507415
1.535313
1.56124
1.585132
1.606931
1.626589
1.644065
1.659323
1.672338
1.683089
1.691566
1.697763
1.701684
1.703341
1.702752
1.699945
1.69496
1.687846
1.678669
1.667519
1.654502
1.639748
1.623421
1.605722
1.586898
1.567255
1.547167
1.52709
1.507576
1.489291
1.472987
1.459471
1.44959
1.444208
0.01095648
0.03319288
0.05632088
0.08037652
0.1053962
0.1314164
0.1584729
0.1866007
0.2158324
0.2461976
0.2777215
0.3104232
0.3443132
0.3793915
0.4156438
0.4530385
0.491522
0.5310134
0.5714189
0.612697
0.6547869
0.6976091
0.741068
0.7850535
0.8294429
0.8741032
0.9188934
0.9636664
1.008271
1.052555
1.096366
1.139552
1.181967
1.223466
1.263912
1.303175
1.341128
1.377655
1.412646
1.445998
1.477617
1.507415
1.535313
1.56124
1.585132
1.606931
1.626589
1.644065
1.659323
1.672338
1.683089
1.691566
1.697763
1.701684
1.703341
1.702752
1.699945
1.69496
1.687846
1.678669
1.667519
1.654502
1.639748
1.623421
1.605722
1.586898
1.567255
1.547167
1.52709
1.507576
1.489291
1.472987
1.459471
1.44959
1.444208
)
;
    }
    wall
    {
        type            fixedValue;
        value           uniform 1e-10;
    }
    frontAndBack
    {
        type            empty;
    }
    middle
    {
        type            symmetryPlane;
        value           nonuniform List<scalar> 2(1.444208 1.444208);
    }
}


// ************************************************************************* //
