/*--------------------------------*- C++ -*----------------------------------*\
| =========                 |                                                 |
| \\      /  F ield         | foam-extend: Open Source CFD                    |
|  \\    /   O peration     | Version:     4.0                                |
|   \\  /    A nd           | Web:         http://www.foam-extend.org         |
|    \\/     M anipulation  |                                                 |
\*---------------------------------------------------------------------------*/
FoamFile
{
    version     2.0;
    format      ascii;
    class       volScalarField;
    location    "100";
    object      fp;
}
// * * * * * * * * * * * * * * * * * * * * * * * * * * * * * * * * * * * * * //

dimensions      [0 0 0 0 0 0 0];

internalField   nonuniform List<scalar> 
150
(
2.238372
2.238369
2.237613
2.237611
2.236314
2.236312
2.234581
2.23458
2.23244
2.232439
2.229839
2.229839
2.226664
2.226663
2.22275
2.22275
2.217908
2.217908
2.211951
2.211951
2.204721
2.204722
2.196124
2.196125
2.186151
2.186152
2.174887
2.174888
2.162474
2.162476
2.148973
2.148975
2.133922
2.133924
2.115721
2.115723
2.093226
2.093228
2.067298
2.0673
2.039603
2.039605
2.010884
2.010886
1.98153
1.981532
1.951811
1.951813
1.921954
1.921956
1.892164
1.892166
1.862614
1.862616
1.833447
1.833449
1.804769
1.804771
1.776651
1.776653
1.749131
1.749133
1.722218
1.722219
1.695894
1.695895
1.670122
1.670123
1.644853
1.644854
1.620028
1.620028
1.595583
1.595583
1.571456
1.571456
1.547589
1.547589
1.523927
1.523927
1.500424
1.500424
1.477039
1.477038
1.453739
1.453739
1.430499
1.430498
1.407295
1.407295
1.384113
1.384112
1.360939
1.360939
1.337767
1.337767
1.314593
1.314593
1.291419
1.291419
1.268254
1.268254
1.245119
1.24512
1.22205
1.22205
1.199105
1.199105
1.176379
1.176379
1.154013
1.154013
1.132217
1.132218
1.111283
1.111283
1.091586
1.091586
1.073561
1.073561
1.057629
1.057629
1.044096
1.044096
1.033055
1.033055
1.024363
1.024363
1.017708
1.017708
1.012708
1.012708
1.008998
1.008998
1.006265
1.006265
1.004272
1.004272
1.002806
1.002806
1.001783
1.001783
1.00097
1.00097
1.000635
1.000635
1.000013
1.000013
1.000117
1.000117
)
;

boundaryField
{
    leftandright
    {
        type            cyclic;
        value           nonuniform List<scalar> 
150
(
2.238371
2.237612
2.236313
2.23458
2.232439
2.229839
2.226664
2.22275
2.217908
2.211951
2.204721
2.196124
2.186152
2.174888
2.162475
2.148974
2.133923
2.115722
2.093227
2.067299
2.039604
2.010885
1.981531
1.951812
1.921955
1.892165
1.862615
1.833448
1.80477
1.776652
1.749132
1.722219
1.695894
1.670123
1.644854
1.620028
1.595583
1.571456
1.547589
1.523927
1.500424
1.477039
1.453739
1.430498
1.407295
1.384113
1.360939
1.337767
1.314593
1.291419
1.268254
1.245119
1.22205
1.199105
1.176379
1.154013
1.132218
1.111283
1.091586
1.073561
1.057629
1.044096
1.033055
1.024363
1.017708
1.012708
1.008998
1.006265
1.004272
1.002806
1.001783
1.00097
1.000635
1.000013
1.000117
2.238371
2.237612
2.236313
2.23458
2.232439
2.229839
2.226664
2.22275
2.217908
2.211951
2.204721
2.196124
2.186152
2.174888
2.162475
2.148974
2.133923
2.115722
2.093227
2.067299
2.039604
2.010885
1.981531
1.951812
1.921955
1.892165
1.862615
1.833448
1.80477
1.776652
1.749132
1.722219
1.695894
1.670123
1.644854
1.620028
1.595583
1.571456
1.547589
1.523927
1.500424
1.477039
1.453739
1.430498
1.407295
1.384113
1.360939
1.337767
1.314593
1.291419
1.268254
1.245119
1.22205
1.199105
1.176379
1.154013
1.132218
1.111283
1.091586
1.073561
1.057629
1.044096
1.033055
1.024363
1.017708
1.012708
1.008998
1.006265
1.004272
1.002806
1.001783
1.00097
1.000635
1.000013
1.000117
)
;
    }
    wall
    {
        type            calculated;
        value           nonuniform List<scalar> 2(2.238372 2.238369);
    }
    frontAndBack
    {
        type            empty;
    }
    middle
    {
        type            symmetryPlane;
        value           nonuniform List<scalar> 2(1.000117 1.000117);
    }
}


// ************************************************************************* //
