/*--------------------------------*- C++ -*----------------------------------*\
| =========                 |                                                 |
| \\      /  F ield         | foam-extend: Open Source CFD                    |
|  \\    /   O peration     | Version:     4.0                                |
|   \\  /    A nd           | Web:         http://www.foam-extend.org         |
|    \\/     M anipulation  |                                                 |
\*---------------------------------------------------------------------------*/
FoamFile
{
    version     2.0;
    format      ascii;
    class       volSymmTensorField;
    location    "100";
    object      N;
}
// * * * * * * * * * * * * * * * * * * * * * * * * * * * * * * * * * * * * * //

dimensions      [0 2 -2 0 0 0 0];

internalField   nonuniform List<symmTensor> 
150
(
(0.002093606 0 0 4.061474e-08 0 5.509036e-05)
(0.002093606 0 0 4.061475e-08 0 5.509041e-05)
(0.02302289 0 0 2.056445e-06 0 0.0006060273)
(0.02302289 0 0 2.056445e-06 0 0.0006060278)
(0.06229773 0 0 1.330137e-05 0 0.001640841)
(0.06229773 0 0 1.330137e-05 0 0.001640842)
(0.1215174 0 0 4.744007e-05 0 0.003203221)
(0.1215174 0 0 4.744007e-05 0 0.003203223)
(0.2023816 0 0 0.0001249661 0 0.005340245)
(0.2023816 0 0 0.0001249661 0 0.005340248)
(0.3066843 0 0 0.0002734564 0 0.008102481)
(0.3066843 0 0 0.0002734565 0 0.008102484)
(0.4349023 3.128968e-19 0 0.0005276115 0 0.0129357)
(0.4349023 -3.128969e-19 0 0.0005276116 0 0.0129357)
(0.5888977 0 0 0.0009290419 0 0.01993845)
(0.5888977 0 0 0.000929042 0 0.01993845)
(0.7705403 0 0 0.001525771 0 0.02917746)
(0.7705404 -1.262261e-18 0 0.001525771 0 0.02917747)
(0.9813243 0 0 0.002371444 0 0.04098303)
(0.9813243 0 0 0.002371445 0 0.04098303)
(1.222531 0 0 0.003524263 0 0.05567706)
(1.222532 0 0 0.003524264 0 0.05567706)
(1.495121 -5.386625e-18 0 0.00504572 0 0.07356419)
(1.495121 5.386625e-18 0 0.00504572 0 0.0735642)
(1.799625 0 0 0.006999242 0 0.09492279)
(1.799626 0 0 0.006999243 0 0.0949228)
(2.136073 7.866136e-18 0 0.009448904 0 0.119997)
(2.136073 -7.866137e-18 0 0.009448906 0 0.119997)
(2.50395 0 0 0.01245835 0 0.1489913)
(2.503951 0 0 0.01245835 0 0.1489913)
(2.90222 -1.06896e-17 0 0.01609006 0 0.182068)
(2.90222 0 0 0.01609006 0 0.182068)
(3.329388 0 0 0.02040503 0 0.2193489)
(3.329388 0 0 0.02040504 0 0.2193489)
(3.783226 2.744697e-17 0 0.02545825 0 0.260883)
(3.783226 0 0 0.02545826 0 0.260883)
(4.258348 0 0 0.03127301 0 0.3064373)
(4.258348 0 0 0.03127301 0 0.3064373)
(4.744908 -6.70407e-17 0 0.03785456 0 0.3555165)
(4.744909 3.352035e-17 0 0.03785457 0 0.3555165)
(5.234132 0 0 0.0452174 0 0.4076816)
(5.234132 0 0 0.04521741 0 0.4076816)
(5.716946 7.813416e-17 0 0.0533662 0 0.4624069)
(5.716947 0 0 0.0533662 0 0.4624069)
(6.184416 8.301444e-17 0 0.06229512 0 0.5190978)
(6.184416 0 0 0.06229513 0 0.5190979)
(6.62815 0 0 0.07198759 0 0.5771113)
(6.62815 0 0 0.0719876 0 0.5771113)
(7.040648 -9.101969e-17 0 0.08241635 0 0.6357783)
(7.040648 0 0 0.08241636 0 0.6357784)
(7.415573 -9.403004e-17 0 0.09354399 0 0.6944271)
(7.415573 0 0 0.093544 0 0.6944272)
(7.747935 -1.926708e-16 0 0.1053238 0 0.752405)
(7.747935 0 0 0.1053238 0 0.752405)
(8.034176 0 0 0.1177011 0 0.8090974)
(8.034176 0 0 0.1177011 0 0.8090975)
(8.272171 0 0 0.1306142 0 0.8639446)
(8.272171 0 0 0.1306142 0 0.8639446)
(8.461151 0 0 0.1439965 0 0.9164525)
(8.461151 0 0 0.1439965 0 0.9164526)
(8.601565 1.971961e-16 0 0.1577773 0 0.9662009)
(8.601566 -1.971961e-16 0 0.1577773 0 0.9662009)
(8.694906 1.951581e-16 0 0.1718832 0 1.012846)
(8.694906 0 0 0.1718832 0 1.012846)
(8.743505 -5.761571e-16 0 0.1862398 0 1.05612)
(8.743506 0 0 0.1862398 0 1.05612)
(8.750335 0 0 0.200772 0 1.095827)
(8.750335 0 0 0.200772 0 1.095827)
(8.718807 3.662633e-16 0 0.2154052 0 1.131841)
(8.718807 0 0 0.2154052 0 1.131841)
(8.652598 0 0 0.230066 0 1.164092)
(8.652598 0 0 0.230066 0 1.164092)
(8.555495 6.85766e-16 0 0.2446824 0 1.192562)
(8.555495 -3.42883e-16 0 0.2446824 0 1.192562)
(8.431265 0 0 0.2591844 0 1.217279)
(8.431265 0 0 0.2591844 0 1.217279)
(8.283559 0 0 0.2735039 0 1.238303)
(8.283559 0 0 0.2735039 0 1.238303)
(8.115837 0 0 0.2875753 0 1.255721)
(8.115837 0 0 0.2875753 0 1.255721)
(7.931312 0 0 0.3013351 0 1.269641)
(7.931313 0 0 0.3013351 0 1.269641)
(7.732925 0 0 0.314722 0 1.280185)
(7.732925 0 0 0.314722 0 1.280185)
(7.523321 0 0 0.3276774 0 1.287484)
(7.523321 0 0 0.3276774 0 1.287484)
(7.304853 -9.712414e-16 0 0.3401446 0 1.291671)
(7.304853 0 0 0.3401446 0 1.291671)
(7.079581 -4.568042e-16 0 0.3520694 0 1.292882)
(7.079581 0 0 0.3520694 0 1.292882)
(6.84929 0 0 0.3634001 0 1.29125)
(6.84929 0 0 0.3634001 0 1.29125)
(6.615506 0 0 0.3740875 0 1.286903)
(6.615506 0 0 0.3740875 0 1.286903)
(6.379515 0 0 0.384085 0 1.279965)
(6.379515 0 0 0.384085 0 1.279965)
(6.142384 6.978438e-16 0 0.3933491 0 1.27055)
(6.142384 0 0 0.3933491 0 1.27055)
(5.904987 6.485672e-16 0 0.4018395 0 1.25877)
(5.904987 -6.485672e-16 0 0.4018395 0 1.25877)
(5.668024 0 0 0.4095199 0 1.244725)
(5.668024 0 0 0.4095199 0 1.244725)
(5.432045 0 0 0.4163581 0 1.228512)
(5.432045 0 0 0.4163581 0 1.228512)
(5.197472 0 0 0.4223272 0 1.210222)
(5.197472 0 0 0.4223272 0 1.210222)
(4.964622 0 0 0.4274062 0 1.189941)
(4.964622 0 0 0.4274062 0 1.189941)
(4.733731 0 0 0.4315809 0 1.167754)
(4.733731 0 0 0.4315809 0 1.167754)
(4.504981 -7.956633e-16 0 0.4348451 0 1.143748)
(4.504981 7.956633e-16 0 0.4348451 0 1.143748)
(4.278531 0 0 0.4372017 0 1.118013)
(4.278531 0 0 0.4372017 0 1.118013)
(4.054552 0 0 0.4386635 0 1.090652)
(4.054552 0 0 0.4386635 0 1.090652)
(3.833271 -6.016603e-16 0 0.4392541 0 1.061779)
(3.833271 6.016603e-16 0 0.4392541 0 1.061779)
(3.615019 0 0 0.4390087 0 1.031536)
(3.615019 0 0 0.4390087 0 1.031536)
(3.40029 0 0 0.4379727 0 1.000092)
(3.40029 0 0 0.4379727 0 1.000092)
(3.189791 0 0 0.4362003 0 0.9676571)
(3.189791 0 0 0.4362003 0 0.9676571)
(2.984482 -1.585855e-15 0 0.4337502 0 0.934484)
(2.984482 0 0 0.4337502 0 0.934484)
(2.785598 0 0 0.4306782 0 0.9008703)
(2.785598 -7.083575e-16 0 0.4306782 0 0.9008703)
(2.59464 0 0 0.4270262 0 0.8671526)
(2.59464 0 0 0.4270262 0 0.8671526)
(2.41333 0 0 0.4228076 0 0.8336933)
(2.41333 0 0 0.4228076 0 0.8336933)
(2.243564 0 0 0.417987 0 0.8008615)
(2.243564 -9.933795e-16 0 0.4179869 0 0.8008614)
(2.087342 0 0 0.4124563 0 0.7690066)
(2.087342 0 0 0.4124563 0 0.7690066)
(1.946723 0 0 0.4060045 0 0.7384267)
(1.946723 0 0 0.4060045 0 0.7384267)
(1.823542 0 0 0.3984627 0 0.7094589)
(1.823542 0 0 0.3984627 0 0.7094589)
(1.718062 0 0 0.3906333 0 0.6831043)
(1.718062 0 0 0.3906333 0 0.6831043)
(1.630899 0 0 0.3832314 0 0.6602889)
(1.630899 0 0 0.3832314 0 0.6602889)
(1.562975 0 0 0.3768918 0 0.6418803)
(1.562975 0 0 0.3768918 0 0.6418803)
(1.515578 0 0 0.3721769 0 0.6287166)
(1.515578 0 0 0.3721769 0 0.6287166)
(1.490499 -8.778065e-16 0 0.3695822 0 0.6216433)
(1.490499 0 0 0.3695822 0 0.6216433)
)
;

boundaryField
{
    leftandright
    {
        type            cyclic;
        value           nonuniform List<symmTensor> 
150
(
(0.002093606 0 0 4.061475e-08 0 5.509039e-05)
(0.02302289 0 0 2.056445e-06 0 0.0006060275)
(0.06229773 0 0 1.330137e-05 0 0.001640841)
(0.1215174 0 0 4.744007e-05 0 0.003203222)
(0.2023816 0 0 0.0001249661 0 0.005340246)
(0.3066843 0 0 0.0002734565 0 0.008102482)
(0.4349023 -1.720592e-34 0 0.0005276115 0 0.0129357)
(0.5888977 0 0 0.0009290419 0 0.01993845)
(0.7705403 -6.311305e-19 0 0.001525771 0 0.02917747)
(0.9813243 0 0 0.002371445 0 0.04098303)
(1.222531 0 0 0.003524263 0 0.05567706)
(1.495121 -4.222777e-34 0 0.00504572 0 0.0735642)
(1.799626 0 0 0.006999242 0 0.09492279)
(2.136073 2.043916e-33 0 0.009448905 0 0.119997)
(2.50395 0 0 0.01245835 0 0.1489913)
(2.90222 -5.344801e-18 0 0.01609006 0 0.182068)
(3.329388 0 0 0.02040504 0 0.2193489)
(3.783226 1.372348e-17 0 0.02545825 0 0.260883)
(4.258348 0 0 0.03127301 0 0.3064373)
(4.744909 -1.676017e-17 0 0.03785456 0 0.3555165)
(5.234132 0 0 0.04521741 0 0.4076816)
(5.716946 3.906708e-17 0 0.0533662 0 0.4624069)
(6.184416 4.150722e-17 0 0.06229512 0 0.5190978)
(6.62815 0 0 0.0719876 0 0.5771113)
(7.040648 -4.550985e-17 0 0.08241636 0 0.6357783)
(7.415573 -4.701502e-17 0 0.09354399 0 0.6944272)
(7.747935 -9.63354e-17 0 0.1053238 0 0.752405)
(8.034176 0 0 0.1177011 0 0.8090975)
(8.272171 0 0 0.1306142 0 0.8639446)
(8.461151 0 0 0.1439965 0 0.9164526)
(8.601566 0 0 0.1577773 0 0.9662009)
(8.694906 9.757903e-17 0 0.1718832 0 1.012846)
(8.743505 -2.880785e-16 0 0.1862398 0 1.05612)
(8.750335 0 0 0.200772 0 1.095827)
(8.718807 1.831317e-16 0 0.2154052 0 1.131841)
(8.652598 0 0 0.230066 0 1.164092)
(8.555495 1.714415e-16 0 0.2446824 0 1.192562)
(8.431265 0 0 0.2591844 0 1.217279)
(8.283559 0 0 0.2735039 0 1.238303)
(8.115837 0 0 0.2875753 0 1.255721)
(7.931313 0 0 0.3013351 0 1.269641)
(7.732925 0 0 0.314722 0 1.280185)
(7.523321 0 0 0.3276774 0 1.287484)
(7.304853 -4.856207e-16 0 0.3401446 0 1.291671)
(7.079581 -2.284021e-16 0 0.3520694 0 1.292882)
(6.84929 0 0 0.3634001 0 1.29125)
(6.615506 0 0 0.3740875 0 1.286903)
(6.379515 0 0 0.384085 0 1.279965)
(6.142384 3.489219e-16 0 0.3933491 0 1.27055)
(5.904987 7.182486e-31 0 0.4018395 0 1.25877)
(5.668024 0 0 0.4095199 0 1.244725)
(5.432045 0 0 0.4163581 0 1.228512)
(5.197472 0 0 0.4223272 0 1.210222)
(4.964622 0 0 0.4274062 0 1.189941)
(4.733731 0 0 0.4315809 0 1.167754)
(4.504981 -6.990318e-32 0 0.4348451 0 1.143748)
(4.278531 0 0 0.4372017 0 1.118013)
(4.054552 0 0 0.4386635 0 1.090652)
(3.833271 -1.227715e-31 0 0.4392541 0 1.061779)
(3.615019 0 0 0.4390087 0 1.031536)
(3.40029 0 0 0.4379727 0 1.000092)
(3.189791 0 0 0.4362003 0 0.9676571)
(2.984482 -7.929274e-16 0 0.4337502 0 0.934484)
(2.785598 -3.541787e-16 0 0.4306782 0 0.9008703)
(2.59464 0 0 0.4270262 0 0.8671526)
(2.41333 0 0 0.4228076 0 0.8336933)
(2.243564 -4.966897e-16 0 0.4179869 0 0.8008614)
(2.087342 0 0 0.4124563 0 0.7690066)
(1.946723 0 0 0.4060045 0 0.7384267)
(1.823542 0 0 0.3984627 0 0.7094589)
(1.718062 0 0 0.3906333 0 0.6831043)
(1.630899 0 0 0.3832314 0 0.6602889)
(1.562975 0 0 0.3768918 0 0.6418803)
(1.515578 0 0 0.3721769 0 0.6287166)
(1.490499 -4.389033e-16 0 0.3695822 0 0.6216433)
(0.002093606 0 0 4.061475e-08 0 5.509039e-05)
(0.02302289 0 0 2.056445e-06 0 0.0006060275)
(0.06229773 0 0 1.330137e-05 0 0.001640841)
(0.1215174 0 0 4.744007e-05 0 0.003203222)
(0.2023816 0 0 0.0001249661 0 0.005340246)
(0.3066843 0 0 0.0002734565 0 0.008102482)
(0.4349023 -1.911769e-34 0 0.0005276115 0 0.0129357)
(0.5888977 0 0 0.0009290419 0 0.01993845)
(0.7705403 -6.311305e-19 0 0.001525771 0 0.02917747)
(0.9813243 0 0 0.002371445 0 0.04098303)
(1.222531 0 0 0.003524263 0 0.05567706)
(1.495121 -4.222777e-34 0 0.00504572 0 0.0735642)
(1.799626 0 0 0.006999242 0 0.09492279)
(2.136073 2.043916e-33 0 0.009448905 0 0.119997)
(2.50395 0 0 0.01245835 0 0.1489913)
(2.90222 -5.344801e-18 0 0.01609006 0 0.182068)
(3.329388 0 0 0.02040504 0 0.2193489)
(3.783226 1.372348e-17 0 0.02545825 0 0.260883)
(4.258348 0 0 0.03127301 0 0.3064373)
(4.744909 -1.676017e-17 0 0.03785456 0 0.3555165)
(5.234132 0 0 0.04521741 0 0.4076816)
(5.716946 3.906708e-17 0 0.0533662 0 0.4624069)
(6.184416 4.150722e-17 0 0.06229512 0 0.5190978)
(6.62815 0 0 0.0719876 0 0.5771113)
(7.040648 -4.550985e-17 0 0.08241636 0 0.6357783)
(7.415573 -4.701502e-17 0 0.09354399 0 0.6944272)
(7.747935 -9.63354e-17 0 0.1053238 0 0.752405)
(8.034176 0 0 0.1177011 0 0.8090975)
(8.272171 0 0 0.1306142 0 0.8639446)
(8.461151 0 0 0.1439965 0 0.9164526)
(8.601566 0 0 0.1577773 0 0.9662009)
(8.694906 9.757903e-17 0 0.1718832 0 1.012846)
(8.743505 -2.880785e-16 0 0.1862398 0 1.05612)
(8.750335 0 0 0.200772 0 1.095827)
(8.718807 1.831317e-16 0 0.2154052 0 1.131841)
(8.652598 0 0 0.230066 0 1.164092)
(8.555495 1.714415e-16 0 0.2446824 0 1.192562)
(8.431265 0 0 0.2591844 0 1.217279)
(8.283559 0 0 0.2735039 0 1.238303)
(8.115837 0 0 0.2875753 0 1.255721)
(7.931313 0 0 0.3013351 0 1.269641)
(7.732925 0 0 0.314722 0 1.280185)
(7.523321 0 0 0.3276774 0 1.287484)
(7.304853 -4.856207e-16 0 0.3401446 0 1.291671)
(7.079581 -2.284021e-16 0 0.3520694 0 1.292882)
(6.84929 0 0 0.3634001 0 1.29125)
(6.615506 0 0 0.3740875 0 1.286903)
(6.379515 0 0 0.384085 0 1.279965)
(6.142384 3.489219e-16 0 0.3933491 0 1.27055)
(5.904987 7.182486e-31 0 0.4018395 0 1.25877)
(5.668024 0 0 0.4095199 0 1.244725)
(5.432045 0 0 0.4163581 0 1.228512)
(5.197472 0 0 0.4223272 0 1.210222)
(4.964622 0 0 0.4274062 0 1.189941)
(4.733731 0 0 0.4315809 0 1.167754)
(4.504981 -6.990318e-32 0 0.4348451 0 1.143748)
(4.278531 0 0 0.4372017 0 1.118013)
(4.054552 0 0 0.4386635 0 1.090652)
(3.833271 -1.227715e-31 0 0.4392541 0 1.061779)
(3.615019 0 0 0.4390087 0 1.031536)
(3.40029 0 0 0.4379727 0 1.000092)
(3.189791 0 0 0.4362003 0 0.9676571)
(2.984482 -7.929274e-16 0 0.4337502 0 0.934484)
(2.785598 -3.541787e-16 0 0.4306782 0 0.9008703)
(2.59464 0 0 0.4270262 0 0.8671526)
(2.41333 0 0 0.4228076 0 0.8336933)
(2.243564 -4.966897e-16 0 0.4179869 0 0.8008614)
(2.087342 0 0 0.4124563 0 0.7690066)
(1.946723 0 0 0.4060045 0 0.7384267)
(1.823542 0 0 0.3984627 0 0.7094589)
(1.718062 0 0 0.3906333 0 0.6831043)
(1.630899 0 0 0.3832314 0 0.6602889)
(1.562975 0 0 0.3768918 0 0.6418803)
(1.515578 0 0 0.3721769 0 0.6287166)
(1.490499 -4.389033e-16 0 0.3695822 0 0.6216433)
)
;
    }
    wall
    {
        type            calculated;
        value           uniform (3.333333e-11 0 0 1e-10 0 6.666667e-11);
    }
    frontAndBack
    {
        type            empty;
    }
    middle
    {
        type            symmetryPlane;
        value           nonuniform List<symmTensor> 2((1.490499 0 0 0.6216433 0 0.6216433) (1.490499 0 0 0.6216433 0 0.6216433));
    }
}


// ************************************************************************* //
