/*--------------------------------*- C++ -*----------------------------------*\
| =========                 |                                                 |
| \\      /  F ield         | foam-extend: Open Source CFD                    |
|  \\    /   O peration     | Version:     4.0                                |
|   \\  /    A nd           | Web:         http://www.foam-extend.org         |
|    \\/     M anipulation  |                                                 |
\*---------------------------------------------------------------------------*/
FoamFile
{
    version     2.0;
    format      ascii;
    class       volScalarField;
    location    "100";
    object      p;
}
// * * * * * * * * * * * * * * * * * * * * * * * * * * * * * * * * * * * * * //

dimensions      [0 2 -2 0 0 0 0];

internalField   nonuniform List<scalar> 
150
(
-7.933709e-09
-0.05000002
-2.470797e-06
-0.05000248
-1.385249e-05
-0.05001386
-4.799192e-05
-0.050048
-0.0001253346
-0.05012534
-0.0002733804
-0.05027339
-0.0005267518
-0.05052676
-0.0009269497
-0.05092696
-0.001521821
-0.05152183
-0.002364742
-0.05236475
-0.003513541
-0.05351355
-0.005029221
-0.05502923
-0.006974585
-0.05697459
-0.009412952
-0.05941296
-0.01240732
-0.06240732
-0.01602015
-0.06602016
-0.02031157
-0.07031158
-0.02532903
-0.07532904
-0.03109692
-0.08109693
-0.03762498
-0.08762498
-0.04492113
-0.09492113
-0.05298904
-0.102989
-0.06182212
-0.1118221
-0.07140243
-0.1214024
-0.08170104
-0.131701
-0.09267866
-0.1426787
-0.1042866
-0.1542866
-0.116468
-0.166468
-0.1291592
-0.1791592
-0.1422912
-0.1922912
-0.1557914
-0.2057914
-0.1695849
-0.2195849
-0.1835954
-0.2335955
-0.1977473
-0.2477473
-0.2119655
-0.2619655
-0.2261772
-0.2761772
-0.2403119
-0.2903119
-0.254302
-0.304302
-0.2680833
-0.3180833
-0.2815952
-0.3315952
-0.2947803
-0.3447803
-0.3075853
-0.3575853
-0.3199601
-0.3699601
-0.3318586
-0.3818586
-0.3432378
-0.3932378
-0.3540582
-0.4040582
-0.3642837
-0.4142837
-0.3738817
-0.4238817
-0.3828226
-0.4328226
-0.3910804
-0.4410804
-0.3986327
-0.4486327
-0.4054607
-0.4554607
-0.4115494
-0.4615494
-0.4168875
-0.4668875
-0.4214675
-0.4714675
-0.4252848
-0.4752848
-0.4283362
-0.4783362
-0.4306187
-0.4806187
-0.4321271
-0.4821271
-0.432854
-0.482854
-0.4327932
-0.4827932
-0.4319462
-0.4819462
-0.4303295
-0.4803295
-0.4279754
-0.4779754
-0.4249228
-0.4749228
-0.4211923
-0.4711923
-0.4167736
-0.4667736
-0.411532
-0.461532
-0.4053984
-0.4553984
-0.3976968
-0.4476968
-0.3915641
-0.4415641
-0.3788554
-0.4288554
-0.3913587
-0.4413587
-0.3177109
-0.3677109
-0.5235648
-0.5735648
)
;

boundaryField
{
    leftandright
    {
        type            fan;
        patchType       cyclic;
        f               1(-0.1);
        value           nonuniform List<scalar> 
150
(
0.02499998
0.02499752
0.02498614
0.024952
0.02487466
0.02472662
0.02447324
0.02407305
0.02347818
0.02263525
0.02148645
0.01997078
0.01802541
0.01558704
0.01259268
0.008979845
0.004688425
-0.0003290367
-0.006096924
-0.01262498
-0.01992113
-0.02798904
-0.03682212
-0.04640243
-0.05670104
-0.06767866
-0.0792866
-0.09146798
-0.1041592
-0.1172912
-0.1307914
-0.1445849
-0.1585955
-0.1727473
-0.1869655
-0.2011772
-0.2153119
-0.229302
-0.2430833
-0.2565952
-0.2697803
-0.2825853
-0.2949601
-0.3068586
-0.3182378
-0.3290582
-0.3392837
-0.3488817
-0.3578226
-0.3660804
-0.3736327
-0.3804607
-0.3865494
-0.3918875
-0.3964675
-0.4002848
-0.4033362
-0.4056187
-0.4071271
-0.407854
-0.4077932
-0.4069462
-0.4053295
-0.4029754
-0.3999228
-0.3961923
-0.3917736
-0.386532
-0.3803984
-0.3726968
-0.3665641
-0.3538554
-0.3663587
-0.2927109
-0.4985648
-0.07500002
-0.07500248
-0.07501386
-0.075048
-0.07512534
-0.07527338
-0.07552676
-0.07592695
-0.07652182
-0.07736475
-0.07851355
-0.08002922
-0.08197459
-0.08441296
-0.08740732
-0.09102016
-0.09531157
-0.100329
-0.1060969
-0.112625
-0.1199211
-0.127989
-0.1368221
-0.1464024
-0.156701
-0.1676787
-0.1792866
-0.191468
-0.2041592
-0.2172912
-0.2307914
-0.2445849
-0.2585955
-0.2727473
-0.2869655
-0.3011772
-0.3153119
-0.329302
-0.3430833
-0.3565952
-0.3697803
-0.3825853
-0.3949601
-0.4068586
-0.4182378
-0.4290582
-0.4392837
-0.4488817
-0.4578226
-0.4660804
-0.4736327
-0.4804607
-0.4865494
-0.4918875
-0.4964675
-0.5002848
-0.5033362
-0.5056187
-0.5071271
-0.507854
-0.5077932
-0.5069462
-0.5053295
-0.5029754
-0.4999228
-0.4961923
-0.4917736
-0.486532
-0.4803984
-0.4726968
-0.4665641
-0.4538554
-0.4663587
-0.3927109
-0.5985648
)
;
    }
    wall
    {
        type            zeroGradient;
    }
    frontAndBack
    {
        type            empty;
    }
    middle
    {
        type            symmetryPlane;
        value           nonuniform List<scalar> 2(-0.5235648 -0.5735648);
    }
}


// ************************************************************************* //
