/*--------------------------------*- C++ -*----------------------------------*\
| =========                 |                                                 |
| \\      /  F ield         | foam-extend: Open Source CFD                    |
|  \\    /   O peration     | Version:     4.0                                |
|   \\  /    A nd           | Web:         http://www.foam-extend.org         |
|    \\/     M anipulation  |                                                 |
\*---------------------------------------------------------------------------*/
FoamFile
{
    version     2.0;
    format      ascii;
    class       surfaceScalarField;
    location    "100";
    object      phi;
}
// * * * * * * * * * * * * * * * * * * * * * * * * * * * * * * * * * * * * * //

dimensions      [0 3 -1 0 0 0 0];

internalField   nonuniform List<scalar> 
223
(
1.476664e-05
3.977361e-12
-7.999062e-15
4.731614e-05
3.842705e-12
-1.082199e-14
8.481432e-05
3.733364e-12
-9.644584e-15
0.0001278484
3.64356e-12
-7.575281e-15
0.0001770657
3.554259e-12
-3.354973e-15
0.0002331763
3.46505e-12
6.505163e-15
0.0002969559
3.384151e-12
2.59458e-14
0.0003692467
3.319456e-12
5.812602e-14
0.0004509573
3.276213e-12
1.049205e-13
0.0005430613
3.256805e-12
1.668226e-13
0.0006465961
3.261074e-12
2.430736e-13
0.0007626614
3.287055e-12
3.321734e-13
0.0008924194
3.332305e-12
4.330774e-13
0.001037097
3.39552e-12
5.467472e-13
0.001197992
3.474872e-12
6.743755e-13
0.001376478
3.547151e-12
7.962817e-13
0.001574017
3.566591e-12
8.704982e-13
0.001792044
3.520299e-12
8.880383e-13
0.002031332
3.435997e-12
8.797331e-13
0.002292451
3.332276e-12
8.663272e-13
0.002576422
3.214176e-12
8.546398e-13
0.002884259
3.090027e-12
8.540166e-13
0.003216964
2.969736e-12
8.74839e-13
0.003575544
2.861681e-12
9.254819e-13
0.003961012
2.771035e-12
1.010076e-12
0.004374402
2.700506e-12
1.127871e-12
0.004816776
2.650924e-12
1.273628e-12
0.005289239
2.619288e-12
1.4386e-12
0.005792954
2.60043e-12
1.61162e-12
0.006329154
2.587492e-12
1.780086e-12
0.006899157
2.571742e-12
1.933516e-12
0.007504376
2.546127e-12
2.06583e-12
0.008146336
2.502078e-12
2.173475e-12
0.008826682
2.433949e-12
2.254598e-12
0.009547192
2.34982e-12
2.302666e-12
0.01030979
2.267547e-12
2.308197e-12
0.01111653
2.193085e-12
2.281314e-12
0.01196966
2.11918e-12
2.246463e-12
0.01287157
2.055452e-12
2.213982e-12
0.01382483
2.02854e-12
2.184224e-12
0.01483219
2.041703e-12
2.178022e-12
0.0158966
2.071925e-12
2.22865e-12
0.0170212
2.102037e-12
2.353784e-12
0.01820932
2.138878e-12
2.537538e-12
0.01946453
2.198156e-12
2.736442e-12
0.02079058
2.263185e-12
2.927037e-12
0.02219147
2.290254e-12
3.105322e-12
0.02367141
2.265247e-12
3.239628e-12
0.02523486
2.196589e-12
3.290489e-12
0.02688651
2.085617e-12
3.240495e-12
0.02863129
1.942981e-12
3.086871e-12
0.03047436
1.744173e-12
2.886775e-12
0.03242112
1.526911e-12
2.651141e-12
0.0344772
1.384571e-12
2.347498e-12
0.03664843
1.307887e-12
2.045736e-12
0.03894083
1.270845e-12
1.81949e-12
0.04136055
1.309534e-12
1.660865e-12
0.04391386
1.462447e-12
1.528469e-12
0.04660702
1.664333e-12
1.450826e-12
0.04944625
1.820442e-12
1.457323e-12
0.05243763
1.906136e-12
1.490147e-12
0.05558699
1.900681e-12
1.493017e-12
0.05889986
1.794887e-12
1.424831e-12
0.06238149
1.601654e-12
1.265578e-12
0.06603682
1.329791e-12
1.051897e-12
0.06987052
1.045445e-12
8.428404e-13
0.07388709
8.33116e-13
6.772035e-13
0.07809089
7.077564e-13
5.952744e-13
0.08248626
6.078656e-13
4.33243e-13
0.08707742
4.318979e-13
5.566067e-14
0.09186792
-1.363908e-13
-7.313333e-13
0.09686005
7.506596e-14
6.342115e-14
0.1020545
-1.266241e-13
1.246376e-13
0.1074501
-3.314107e-13
6.002253e-14
0.1130419
)
;

boundaryField
{
    leftandright
    {
        type            cyclic;
        value           nonuniform List<scalar> 
150
(
-1.476664e-05
-4.731614e-05
-8.481432e-05
-0.0001278484
-0.0001770657
-0.0002331763
-0.0002969559
-0.0003692467
-0.0004509573
-0.0005430613
-0.0006465961
-0.0007626614
-0.0008924194
-0.001037097
-0.001197992
-0.001376478
-0.001574017
-0.001792044
-0.002031332
-0.002292451
-0.002576422
-0.002884259
-0.003216964
-0.003575544
-0.003961012
-0.004374402
-0.004816776
-0.005289239
-0.005792954
-0.006329154
-0.006899157
-0.007504376
-0.008146336
-0.008826682
-0.009547192
-0.01030979
-0.01111653
-0.01196966
-0.01287157
-0.01382483
-0.01483219
-0.0158966
-0.0170212
-0.01820932
-0.01946453
-0.02079058
-0.02219147
-0.02367141
-0.02523486
-0.02688651
-0.02863129
-0.03047436
-0.03242112
-0.0344772
-0.03664843
-0.03894083
-0.04136055
-0.04391386
-0.04660702
-0.04944625
-0.05243763
-0.05558699
-0.05889986
-0.06238149
-0.06603682
-0.06987052
-0.07388709
-0.07809089
-0.08248626
-0.08707742
-0.09186792
-0.09686005
-0.1020545
-0.1074501
-0.1130419
1.476664e-05
4.731614e-05
8.481432e-05
0.0001278484
0.0001770657
0.0002331763
0.0002969559
0.0003692467
0.0004509573
0.0005430613
0.0006465961
0.0007626614
0.0008924194
0.001037097
0.001197992
0.001376478
0.001574017
0.001792044
0.002031332
0.002292451
0.002576422
0.002884259
0.003216964
0.003575544
0.003961012
0.004374402
0.004816776
0.005289239
0.005792954
0.006329154
0.006899157
0.007504376
0.008146336
0.008826682
0.009547192
0.01030979
0.01111653
0.01196966
0.01287157
0.01382483
0.01483219
0.0158966
0.0170212
0.01820932
0.01946453
0.02079058
0.02219147
0.02367141
0.02523486
0.02688651
0.02863129
0.03047436
0.03242112
0.0344772
0.03664843
0.03894083
0.04136055
0.04391386
0.04660702
0.04944625
0.05243763
0.05558699
0.05889986
0.06238149
0.06603682
0.06987052
0.07388709
0.07809089
0.08248626
0.08707742
0.09186792
0.09686005
0.1020545
0.1074501
0.1130419
)
;
    }
    wall
    {
        type            calculated;
        value           uniform 0;
    }
    frontAndBack
    {
        type            empty;
    }
    middle
    {
        type            symmetryPlane;
        value           uniform 0;
    }
}


// ************************************************************************* //
