/*--------------------------------*- C++ -*----------------------------------*\
| =========                 |                                                 |
| \\      /  F ield         | foam-extend: Open Source CFD                    |
|  \\    /   O peration     | Version:     4.0                                |
|   \\  /    A nd           | Web:         http://www.foam-extend.org         |
|    \\/     M anipulation  |                                                 |
\*---------------------------------------------------------------------------*/
FoamFile
{
    version     2.0;
    format      ascii;
    class       volScalarField;
    location    "100";
    object      QR;
}
// * * * * * * * * * * * * * * * * * * * * * * * * * * * * * * * * * * * * * //

dimensions      [0 0 -1 0 0 0 0];

internalField   nonuniform List<scalar> 
150
(
190.3157
190.3157
190.0608
190.0608
189.7868
189.7868
189.4804
189.4804
189.1222
189.1222
188.6863
188.6863
188.1395
188.1395
187.4426
187.4426
186.5518
186.5518
185.4226
185.4226
184.0138
184.0138
182.2927
182.2927
180.2392
180.2392
177.848
177.848
175.1294
175.1294
172.1067
172.1067
168.737
168.737
164.5866
164.5866
159.297
159.297
153.23
153.23
146.7747
146.7747
140.0213
140.0213
133.0601
133.0601
125.9775
125.9775
118.8544
118.8544
111.7652
111.7652
104.777
104.777
97.94835
97.94835
91.32929
91.32929
84.96063
84.96063
78.87424
78.87424
73.09336
73.09336
67.63327
67.63327
62.50207
62.50207
57.70165
57.70165
53.2286
53.2286
49.07525
49.07525
45.23051
45.23051
41.68078
41.68078
38.41064
38.41064
35.40353
35.40353
32.64227
32.64227
30.10952
30.10952
27.78809
27.78809
25.66125
25.66125
23.7129
23.7129
21.92768
21.92768
20.29109
20.29109
18.78951
18.78951
17.41021
17.41021
16.1413
16.1413
14.97173
14.97173
13.89119
13.89119
12.89008
12.89008
11.9594
11.9594
11.09065
11.09065
10.27582
10.27582
9.507292
9.507292
8.777895
8.777895
8.081063
8.081063
7.411113
7.411113
6.763608
6.763608
6.135663
6.135663
5.52603
5.52603
4.934941
4.934941
4.363788
4.363788
3.814725
3.814725
3.290235
3.290235
2.792357
2.792357
2.320521
2.320521
1.871187
1.871187
1.440372
1.440372
1.026667
1.026667
0.6311296
0.6311295
0.220162
0.2201618
)
;

boundaryField
{
    leftandright
    {
        type            cyclic;
        value           nonuniform List<scalar> 
150
(
190.3157
190.0608
189.7868
189.4804
189.1222
188.6863
188.1395
187.4426
186.5518
185.4226
184.0138
182.2927
180.2392
177.848
175.1294
172.1067
168.737
164.5866
159.297
153.23
146.7747
140.0213
133.0601
125.9775
118.8544
111.7652
104.777
97.94835
91.32929
84.96063
78.87424
73.09336
67.63327
62.50207
57.70165
53.2286
49.07525
45.23051
41.68078
38.41064
35.40353
32.64227
30.10952
27.78809
25.66125
23.7129
21.92768
20.29109
18.78951
17.41021
16.1413
14.97173
13.89119
12.89008
11.9594
11.09065
10.27582
9.507292
8.777895
8.081063
7.411113
6.763608
6.135663
5.52603
4.934941
4.363788
3.814725
3.290235
2.792357
2.320521
1.871187
1.440372
1.026667
0.6311295
0.2201619
190.3157
190.0608
189.7868
189.4804
189.1222
188.6863
188.1395
187.4426
186.5518
185.4226
184.0138
182.2927
180.2392
177.848
175.1294
172.1067
168.737
164.5866
159.297
153.23
146.7747
140.0213
133.0601
125.9775
118.8544
111.7652
104.777
97.94835
91.32929
84.96063
78.87424
73.09336
67.63327
62.50207
57.70165
53.2286
49.07525
45.23051
41.68078
38.41064
35.40353
32.64227
30.10952
27.78809
25.66125
23.7129
21.92768
20.29109
18.78951
17.41021
16.1413
14.97173
13.89119
12.89008
11.9594
11.09065
10.27582
9.507292
8.777895
8.081063
7.411113
6.763608
6.135663
5.52603
4.934941
4.363788
3.814725
3.290235
2.792357
2.320521
1.871187
1.440372
1.026667
0.6311295
0.2201619
)
;
    }
    wall
    {
        type            calculated;
        value           nonuniform List<scalar> 2(190.4396 190.4396);
    }
    frontAndBack
    {
        type            empty;
    }
    middle
    {
        type            symmetryPlane;
        value           nonuniform List<scalar> 2(0.6866513 0.6866513);
    }
}


// ************************************************************************* //
