/*--------------------------------*- C++ -*----------------------------------*\
| =========                 |                                                 |
| \\      /  F ield         | foam-extend: Open Source CFD                    |
|  \\    /   O peration     | Version:     4.0                                |
|   \\  /    A nd           | Web:         http://www.foam-extend.org         |
|    \\/     M anipulation  |                                                 |
\*---------------------------------------------------------------------------*/
FoamFile
{
    version     2.0;
    format      ascii;
    class       volSymmTensorField;
    location    "100";
    object      tauP;
}
// * * * * * * * * * * * * * * * * * * * * * * * * * * * * * * * * * * * * * //

dimensions      [0 2 -2 0 0 0 0];

internalField   nonuniform List<symmTensor> 
150
(
(2.229062 0.04729382 0 3.636709e-06 0 3.142862e-06)
(2.229058 0.04729369 0 3.633633e-06 0 3.143145e-06)
(2.227698 0.04727436 0 3.416952e-06 0 2.872571e-06)
(2.227694 0.04727423 0 3.413822e-06 0 2.872853e-06)
(2.225359 0.04724442 0 3.213741e-06 0 2.560286e-06)
(2.225356 0.04724429 0 3.210772e-06 0 2.560537e-06)
(2.222241 0.04720886 0 3.166906e-06 0 2.320776e-06)
(2.222238 0.04720874 0 3.164214e-06 0 2.320962e-06)
(2.218387 0.04716965 0 3.366324e-06 0 2.200676e-06)
(2.218385 0.04716955 0 3.363961e-06 0 2.200813e-06)
(2.213705 0.04712649 0 3.880823e-06 0 2.197534e-06)
(2.213704 0.0471264 0 3.878795e-06 0 2.197693e-06)
(2.207988 0.04707745 0 4.786653e-06 0 2.276826e-06)
(2.207987 0.04707737 0 4.784926e-06 0 2.277104e-06)
(2.200941 0.04701981 0 6.195471e-06 0 2.386869e-06)
(2.200941 0.04701974 0 6.193996e-06 0 2.387347e-06)
(2.192224 0.04695079 0 8.280176e-06 0 2.471987e-06)
(2.192224 0.04695073 0 8.278903e-06 0 2.472711e-06)
(2.181498 0.04686851 0 1.129634e-05 0 2.484557e-06)
(2.181499 0.04686846 0 1.129524e-05 0 2.485539e-06)
(2.16848 0.04677284 0 1.559712e-05 0 2.396552e-06)
(2.168481 0.04677279 0 1.559621e-05 0 2.397788e-06)
(2.152999 0.04666623 0 2.164132e-05 0 2.21119e-06)
(2.153001 0.04666619 0 2.164064e-05 0 2.212671e-06)
(2.13504 0.0465545 0 2.999806e-05 0 1.975514e-06)
(2.135042 0.04655447 0 2.999766e-05 0 1.977225e-06)
(2.114753 0.04644724 0 4.135772e-05 0 1.794347e-06)
(2.114756 0.04644722 0 4.135768e-05 0 1.796254e-06)
(2.092395 0.04635761 0 5.656309e-05 0 1.839439e-06)
(2.092398 0.04635762 0 5.656345e-05 0 1.841493e-06)
(2.068073 0.04629948 0 7.66634e-05 0 2.311595e-06)
(2.068076 0.0462995 0 7.666423e-05 0 2.313764e-06)
(2.040953 0.04627386 0 0.0001028872 0 3.168952e-06)
(2.040957 0.0462739 0 0.0001028885 0 3.171242e-06)
(2.008158 0.0462437 0 0.0001366087 0 3.57712e-06)
(2.008162 0.04624375 0 0.0001366105 0 3.579544e-06)
(1.967624 0.04618188 0 0.0001805231 0 2.902034e-06)
(1.967627 0.04618194 0 0.0001805254 0 2.904555e-06)
(1.9209 0.04611995 0 0.0002351911 0 1.68188e-06)
(1.920904 0.04612002 0 0.0002351939 0 1.684475e-06)
(1.870982 0.04610972 0 0.000302265 0 7.485287e-07)
(1.870986 0.0461098 0 0.0003022682 0 7.512917e-07)
(1.819208 0.04616661 0 0.0003829377 0 1.531994e-07)
(1.819212 0.0461667 0 0.0003829413 0 1.561719e-07)
(1.766276 0.04629481 0 0.0004784492 0 -2.161891e-07)
(1.76628 0.0462949 0 0.0004784531 0 -2.129342e-07)
(1.71267 0.04649632 0 0.0005902598 0 -4.53047e-07)
(1.712674 0.04649642 0 0.0005902639 0 -4.495907e-07)
(1.658799 0.046773 0 0.0007200591 0 -6.08995e-07)
(1.658802 0.04677309 0 0.0007200634 0 -6.05407e-07)
(1.605026 0.04712617 0 0.0008697292 0 -7.082359e-07)
(1.60503 0.04712626 0 0.0008697336 0 -7.045828e-07)
(1.551665 0.04755597 0 0.001041298 0 -7.627841e-07)
(1.551669 0.04755606 0 0.001041303 0 -7.588437e-07)
(1.498969 0.0480607 0 0.001236891 0 -7.801979e-07)
(1.498973 0.04806079 0 0.001236896 0 -7.761482e-07)
(1.447127 0.04863643 0 0.001458671 0 -7.672502e-07)
(1.44713 0.04863651 0 0.001458676 0 -7.631934e-07)
(1.396264 0.04927663 0 0.001708766 0 -7.303747e-07)
(1.396268 0.04927673 0 0.001708772 0 -7.262402e-07)
(1.346448 0.04997201 0 0.00198918 0 -6.757468e-07)
(1.346451 0.0499721 0 0.001989186 0 -6.717268e-07)
(1.297691 0.05071033 0 0.002301681 0 -6.09664e-07)
(1.297694 0.05071043 0 0.002301688 0 -6.058127e-07)
(1.249961 0.05147651 0 0.002647679 0 -5.370436e-07)
(1.249964 0.05147658 0 0.002647685 0 -5.336097e-07)
(1.203193 0.05225267 0 0.003028083 0 -4.623561e-07)
(1.203194 0.05225272 0 0.00302809 0 -4.595146e-07)
(1.157293 0.05301844 0 0.003443159 0 -3.892606e-07)
(1.157294 0.05301848 0 0.003443164 0 -3.869083e-07)
(1.112158 0.05375133 0 0.003892367 0 -3.206568e-07)
(1.112159 0.05375139 0 0.003892374 0 -3.185608e-07)
(1.067675 0.05442732 0 0.004374232 0 -2.571827e-07)
(1.067676 0.05442736 0 0.004374238 0 -2.557342e-07)
(1.023735 0.05502129 0 0.004886197 0 -2.000858e-07)
(1.023736 0.05502134 0 0.004886203 0 -1.993283e-07)
(0.9802356 0.0555078 0 0.005424528 0 -1.49617e-07)
(0.9802356 0.05550784 0 0.005424531 0 -1.494275e-07)
(0.9370844 0.05586162 0 0.005984217 0 -1.052831e-07)
(0.9370843 0.05586165 0 0.005984221 0 -1.054073e-07)
(0.8942038 0.05605843 0 0.006558949 0 -6.619681e-08)
(0.8942035 0.05605843 0 0.006558952 0 -6.708883e-08)
(0.8515289 0.05607531 0 0.007141072 0 -3.219188e-08)
(0.8515282 0.0560753 0 0.007141073 0 -3.327625e-08)
(0.8090093 0.05589136 0 0.007721641 0 -1.851484e-09)
(0.8090086 0.05589134 0 0.007721639 0 -3.328551e-09)
(0.766607 0.05548792 0 0.00829047 0 2.562873e-08)
(0.7666062 0.05548788 0 0.008290466 0 2.378328e-08)
(0.7242949 0.05484902 0 0.008836237 0 5.05266e-08)
(0.7242944 0.05484898 0 0.008836234 0 4.884668e-08)
(0.6820562 0.0539615 0 0.009346631 0 7.391079e-08)
(0.6820556 0.05396148 0 0.009346628 0 7.211189e-08)
(0.6398822 0.05281524 0 0.009808513 0 9.603528e-08)
(0.6398816 0.05281522 0 0.009808509 0 9.454675e-08)
(0.5977725 0.05140312 0 0.01020813 0 1.173432e-07)
(0.5977723 0.05140311 0 0.01020812 0 1.159793e-07)
(0.5557357 0.04972117 0 0.01053134 0 1.386101e-07)
(0.5557358 0.04972116 0 0.01053134 0 1.378442e-07)
(0.5137897 0.04776869 0 0.01076395 0 1.597036e-07)
(0.5137899 0.04776867 0 0.01076395 0 1.588921e-07)
(0.4719655 0.04554838 0 0.01089201 0 1.802999e-07)
(0.4719658 0.0455484 0 0.01089201 0 1.801739e-07)
(0.4303124 0.04306684 0 0.01090226 0 2.00217e-07)
(0.4303127 0.04306685 0 0.01090227 0 2.002422e-07)
(0.3889068 0.04033524 0 0.01078277 0 2.18144e-07)
(0.3889074 0.04033525 0 0.01078277 0 2.185088e-07)
(0.3478654 0.03737063 0 0.01052368 0 2.318387e-07)
(0.347866 0.03737066 0 0.01052369 0 2.323209e-07)
(0.3073629 0.03419797 0 0.01011845 0 2.376677e-07)
(0.3073632 0.034198 0 0.01011846 0 2.379869e-07)
(0.2676577 0.03085322 0 0.009565533 0 2.314051e-07)
(0.267658 0.03085326 0 0.009565546 0 2.317113e-07)
(0.2291205 0.02738707 0 0.008870723 0 2.083261e-07)
(0.2291208 0.0273871 0 0.008870736 0 2.085785e-07)
(0.1922593 0.02386921 0 0.008049996 0 1.66251e-07)
(0.1922597 0.02386925 0 0.008050012 0 1.665411e-07)
(0.1577225 0.02039036 0 0.007132128 0 1.081848e-07)
(0.1577228 0.0203904 0 0.007132142 0 1.08341e-07)
(0.1262496 0.01705877 0 0.006159372 0 4.34212e-08)
(0.1262498 0.0170588 0 0.006159383 0 4.327456e-08)
(0.09854859 0.013987 0 0.005183864 0 -1.460254e-08)
(0.09854878 0.01398702 0 0.005183873 0 -1.481933e-08)
(0.07511475 0.01126971 0 0.004258628 0 -5.394609e-08)
(0.0751149 0.01126973 0 0.004258635 0 -5.400271e-08)
(0.05607311 0.008961017 0 0.003425852 0 -7.102642e-08)
(0.0560732 0.008961028 0 0.003425856 0 -7.09234e-08)
(0.04114537 0.007064934 0 0.002708577 0 -7.050014e-08)
(0.04114543 0.00706494 0 0.002708581 0 -7.057555e-08)
(0.02976463 0.005544474 0 0.00211042 0 -6.117028e-08)
(0.02976467 0.00554448 0 0.002110422 0 -6.090596e-08)
(0.02125334 0.004341152 0 0.001621557 0 -4.909168e-08)
(0.02125336 0.004341154 0 0.001621559 0 -4.923351e-08)
(0.01496961 0.003393613 0 0.001226755 0 -3.841528e-08)
(0.01496962 0.003393616 0 0.001226757 0 -3.830509e-08)
(0.01036851 0.002646005 0 0.0009092725 0 -3.048035e-08)
(0.01036852 0.002646008 0 0.000909275 0 -2.970228e-08)
(0.007032507 0.002055486 0 0.0006575133 0 -2.290939e-08)
(0.007032518 0.002055489 0 0.0006575143 0 -2.108107e-08)
(0.004599817 0.001576741 0 0.0004508647 0 -1.752242e-08)
(0.004599822 0.001576742 0 0.0004508686 0 -1.525336e-08)
(0.00290242 0.001200047 0 0.0003075389 0 -4.513416e-09)
(0.002902413 0.001200045 0 0.0003075384 0 -4.145382e-09)
(0.001597652 0.0008557964 0 0.0001480357 0 -8.628679e-09)
(0.00159764 0.0008557926 0 0.0001480323 0 -1.270399e-08)
(0.0009602704 0.0006292453 0 0.0001822784 0 9.398091e-09)
(0.000960262 0.0006292439 0 0.0001822715 0 2.473349e-10)
(0.000122494 0.0003173069 0 -9.956589e-05 0 -1.760925e-08)
(0.0001224956 0.0003173089 0 -9.956502e-05 0 -1.599953e-08)
(0.0001268128 0.0001205883 0 8.330231e-05 0 2.975972e-09)
(0.0001268081 0.0001205879 0 8.330146e-05 0 1.917547e-09)
)
;

boundaryField
{
    leftandright
    {
        type            cyclic;
        value           nonuniform List<symmTensor> 
150
(
(2.22906 0.04729376 0 3.635171e-06 0 3.143003e-06)
(2.227696 0.0472743 0 3.415387e-06 0 2.872712e-06)
(2.225358 0.04724435 0 3.212256e-06 0 2.560412e-06)
(2.222239 0.0472088 0 3.16556e-06 0 2.320869e-06)
(2.218386 0.0471696 0 3.365143e-06 0 2.200745e-06)
(2.213704 0.04712644 0 3.879809e-06 0 2.197613e-06)
(2.207987 0.04707741 0 4.785789e-06 0 2.276965e-06)
(2.200941 0.04701977 0 6.194733e-06 0 2.387108e-06)
(2.192224 0.04695076 0 8.27954e-06 0 2.472349e-06)
(2.181498 0.04686848 0 1.129579e-05 0 2.485048e-06)
(2.16848 0.04677281 0 1.559666e-05 0 2.39717e-06)
(2.153 0.04666621 0 2.164098e-05 0 2.211931e-06)
(2.135041 0.04655449 0 2.999786e-05 0 1.976369e-06)
(2.114755 0.04644723 0 4.13577e-05 0 1.795301e-06)
(2.092396 0.04635761 0 5.656327e-05 0 1.840466e-06)
(2.068075 0.04629949 0 7.666381e-05 0 2.312679e-06)
(2.040955 0.04627388 0 0.0001028879 0 3.170097e-06)
(2.00816 0.04624372 0 0.0001366096 0 3.578332e-06)
(1.967625 0.04618191 0 0.0001805242 0 2.903294e-06)
(1.920902 0.04611998 0 0.0002351925 0 1.683178e-06)
(1.870984 0.04610976 0 0.0003022666 0 7.499102e-07)
(1.81921 0.04616666 0 0.0003829395 0 1.546856e-07)
(1.766278 0.04629485 0 0.0004784511 0 -2.145616e-07)
(1.712672 0.04649637 0 0.0005902618 0 -4.513188e-07)
(1.6588 0.04677305 0 0.0007200613 0 -6.07201e-07)
(1.605028 0.04712622 0 0.0008697314 0 -7.064094e-07)
(1.551667 0.04755601 0 0.001041301 0 -7.608139e-07)
(1.498971 0.04806075 0 0.001236894 0 -7.781731e-07)
(1.447128 0.04863647 0 0.001458674 0 -7.652218e-07)
(1.396266 0.04927668 0 0.001708769 0 -7.283074e-07)
(1.34645 0.04997205 0 0.001989183 0 -6.737368e-07)
(1.297693 0.05071038 0 0.002301684 0 -6.077383e-07)
(1.249963 0.05147655 0 0.002647682 0 -5.353267e-07)
(1.203193 0.0522527 0 0.003028087 0 -4.609354e-07)
(1.157294 0.05301846 0 0.003443162 0 -3.880845e-07)
(1.112158 0.05375136 0 0.00389237 0 -3.196088e-07)
(1.067675 0.05442734 0 0.004374235 0 -2.564585e-07)
(1.023735 0.05502131 0 0.0048862 0 -1.99707e-07)
(0.9802356 0.05550782 0 0.005424529 0 -1.495222e-07)
(0.9370844 0.05586163 0 0.005984219 0 -1.053452e-07)
(0.8942036 0.05605843 0 0.00655895 0 -6.664282e-08)
(0.8515286 0.05607531 0 0.007141072 0 -3.273407e-08)
(0.809009 0.05589135 0 0.00772164 0 -2.590017e-09)
(0.7666066 0.0554879 0 0.008290468 0 2.4706e-08)
(0.7242946 0.054849 0 0.008836235 0 4.968664e-08)
(0.6820559 0.05396149 0 0.009346629 0 7.301134e-08)
(0.6398819 0.05281523 0 0.009808511 0 9.529101e-08)
(0.5977724 0.05140311 0 0.01020812 0 1.166612e-07)
(0.5557358 0.04972117 0 0.01053134 0 1.382272e-07)
(0.5137898 0.04776868 0 0.01076395 0 1.592979e-07)
(0.4719656 0.04554839 0 0.01089201 0 1.802369e-07)
(0.4303125 0.04306685 0 0.01090226 0 2.002296e-07)
(0.3889071 0.04033524 0 0.01078277 0 2.183264e-07)
(0.3478657 0.03737064 0 0.01052368 0 2.320798e-07)
(0.307363 0.03419798 0 0.01011845 0 2.378273e-07)
(0.2676578 0.03085324 0 0.009565539 0 2.315582e-07)
(0.2291206 0.02738709 0 0.00887073 0 2.084523e-07)
(0.1922595 0.02386923 0 0.008050004 0 1.663961e-07)
(0.1577226 0.02039038 0 0.007132135 0 1.082629e-07)
(0.1262497 0.01705878 0 0.006159377 0 4.334788e-08)
(0.09854868 0.01398701 0 0.005183868 0 -1.471093e-08)
(0.07511482 0.01126972 0 0.004258632 0 -5.39744e-08)
(0.05607316 0.008961022 0 0.003425854 0 -7.097491e-08)
(0.0411454 0.007064937 0 0.002708579 0 -7.053784e-08)
(0.02976465 0.005544477 0 0.002110421 0 -6.103812e-08)
(0.02125335 0.004341153 0 0.001621558 0 -4.91626e-08)
(0.01496962 0.003393615 0 0.001226756 0 -3.836018e-08)
(0.01036852 0.002646007 0 0.0009092738 0 -3.009132e-08)
(0.007032513 0.002055488 0 0.0006575138 0 -2.199523e-08)
(0.00459982 0.001576741 0 0.0004508666 0 -1.638789e-08)
(0.002902416 0.001200046 0 0.0003075387 0 -4.329399e-09)
(0.001597646 0.0008557945 0 0.000148034 0 -1.066633e-08)
(0.0009602662 0.0006292446 0 0.0001822749 0 4.822713e-09)
(0.0001224948 0.0003173079 0 -9.956545e-05 0 -1.680439e-08)
(0.0001268105 0.0001205881 0 8.330189e-05 0 2.44676e-09)
(2.22906 0.04729376 0 3.635171e-06 0 3.143003e-06)
(2.227696 0.0472743 0 3.415387e-06 0 2.872712e-06)
(2.225358 0.04724435 0 3.212256e-06 0 2.560412e-06)
(2.222239 0.0472088 0 3.16556e-06 0 2.320869e-06)
(2.218386 0.0471696 0 3.365143e-06 0 2.200745e-06)
(2.213704 0.04712644 0 3.879809e-06 0 2.197613e-06)
(2.207987 0.04707741 0 4.785789e-06 0 2.276965e-06)
(2.200941 0.04701977 0 6.194733e-06 0 2.387108e-06)
(2.192224 0.04695076 0 8.27954e-06 0 2.472349e-06)
(2.181498 0.04686848 0 1.129579e-05 0 2.485048e-06)
(2.16848 0.04677281 0 1.559666e-05 0 2.39717e-06)
(2.153 0.04666621 0 2.164098e-05 0 2.211931e-06)
(2.135041 0.04655449 0 2.999786e-05 0 1.976369e-06)
(2.114755 0.04644723 0 4.13577e-05 0 1.795301e-06)
(2.092396 0.04635761 0 5.656327e-05 0 1.840466e-06)
(2.068075 0.04629949 0 7.666381e-05 0 2.312679e-06)
(2.040955 0.04627388 0 0.0001028879 0 3.170097e-06)
(2.00816 0.04624372 0 0.0001366096 0 3.578332e-06)
(1.967625 0.04618191 0 0.0001805242 0 2.903294e-06)
(1.920902 0.04611998 0 0.0002351925 0 1.683178e-06)
(1.870984 0.04610976 0 0.0003022666 0 7.499102e-07)
(1.81921 0.04616666 0 0.0003829395 0 1.546856e-07)
(1.766278 0.04629485 0 0.0004784511 0 -2.145616e-07)
(1.712672 0.04649637 0 0.0005902618 0 -4.513188e-07)
(1.6588 0.04677305 0 0.0007200613 0 -6.07201e-07)
(1.605028 0.04712622 0 0.0008697314 0 -7.064094e-07)
(1.551667 0.04755601 0 0.001041301 0 -7.608139e-07)
(1.498971 0.04806075 0 0.001236894 0 -7.781731e-07)
(1.447128 0.04863647 0 0.001458674 0 -7.652218e-07)
(1.396266 0.04927668 0 0.001708769 0 -7.283074e-07)
(1.34645 0.04997205 0 0.001989183 0 -6.737368e-07)
(1.297693 0.05071038 0 0.002301684 0 -6.077383e-07)
(1.249963 0.05147655 0 0.002647682 0 -5.353267e-07)
(1.203193 0.0522527 0 0.003028087 0 -4.609354e-07)
(1.157294 0.05301846 0 0.003443162 0 -3.880845e-07)
(1.112158 0.05375136 0 0.00389237 0 -3.196088e-07)
(1.067675 0.05442734 0 0.004374235 0 -2.564585e-07)
(1.023735 0.05502131 0 0.0048862 0 -1.99707e-07)
(0.9802356 0.05550782 0 0.005424529 0 -1.495222e-07)
(0.9370844 0.05586163 0 0.005984219 0 -1.053452e-07)
(0.8942036 0.05605843 0 0.00655895 0 -6.664282e-08)
(0.8515286 0.05607531 0 0.007141072 0 -3.273407e-08)
(0.809009 0.05589135 0 0.00772164 0 -2.590017e-09)
(0.7666066 0.0554879 0 0.008290468 0 2.4706e-08)
(0.7242946 0.054849 0 0.008836235 0 4.968664e-08)
(0.6820559 0.05396149 0 0.009346629 0 7.301134e-08)
(0.6398819 0.05281523 0 0.009808511 0 9.529101e-08)
(0.5977724 0.05140311 0 0.01020812 0 1.166612e-07)
(0.5557358 0.04972117 0 0.01053134 0 1.382272e-07)
(0.5137898 0.04776868 0 0.01076395 0 1.592979e-07)
(0.4719656 0.04554839 0 0.01089201 0 1.802369e-07)
(0.4303125 0.04306685 0 0.01090226 0 2.002296e-07)
(0.3889071 0.04033524 0 0.01078277 0 2.183264e-07)
(0.3478657 0.03737064 0 0.01052368 0 2.320798e-07)
(0.307363 0.03419798 0 0.01011845 0 2.378273e-07)
(0.2676578 0.03085324 0 0.009565539 0 2.315582e-07)
(0.2291206 0.02738709 0 0.00887073 0 2.084523e-07)
(0.1922595 0.02386923 0 0.008050004 0 1.663961e-07)
(0.1577226 0.02039038 0 0.007132135 0 1.082629e-07)
(0.1262497 0.01705878 0 0.006159377 0 4.334788e-08)
(0.09854868 0.01398701 0 0.005183868 0 -1.471093e-08)
(0.07511482 0.01126972 0 0.004258632 0 -5.39744e-08)
(0.05607316 0.008961022 0 0.003425854 0 -7.097491e-08)
(0.0411454 0.007064937 0 0.002708579 0 -7.053784e-08)
(0.02976465 0.005544477 0 0.002110421 0 -6.103812e-08)
(0.02125335 0.004341153 0 0.001621558 0 -4.91626e-08)
(0.01496962 0.003393615 0 0.001226756 0 -3.836018e-08)
(0.01036852 0.002646007 0 0.0009092738 0 -3.009132e-08)
(0.007032513 0.002055488 0 0.0006575138 0 -2.199523e-08)
(0.00459982 0.001576741 0 0.0004508666 0 -1.638789e-08)
(0.002902416 0.001200046 0 0.0003075387 0 -4.329399e-09)
(0.001597646 0.0008557945 0 0.000148034 0 -1.066633e-08)
(0.0009602662 0.0006292446 0 0.0001822749 0 4.822713e-09)
(0.0001224948 0.0003173079 0 -9.956545e-05 0 -1.680439e-08)
(0.0001268105 0.0001205881 0 8.330189e-05 0 2.44676e-09)
)
;
    }
    wall
    {
        type            calculated;
        value           nonuniform List<symmTensor> 2((2.229062 0.04729382 0 3.636709e-06 0 3.142862e-06) (2.229058 0.04729369 0 3.633633e-06 0 3.143145e-06));
    }
    frontAndBack
    {
        type            empty;
    }
    middle
    {
        type            symmetryPlane;
        value           nonuniform List<symmTensor> 2((0.0001268128 0 0 8.330231e-05 0 2.975972e-09) (0.0001268081 0 0 8.330146e-05 0 1.917547e-09));
    }
}


// ************************************************************************* //
