/*--------------------------------*- C++ -*----------------------------------*\
| =========                 |                                                 |
| \\      /  F ield         | foam-extend: Open Source CFD                    |
|  \\    /   O peration     | Version:     4.0                                |
|   \\  /    A nd           | Web:         http://www.foam-extend.org         |
|    \\/     M anipulation  |                                                 |
\*---------------------------------------------------------------------------*/
FoamFile
{
    version     2.0;
    format      ascii;
    class       volScalarField;
    location    "100";
    object      trC;
}
// * * * * * * * * * * * * * * * * * * * * * * * * * * * * * * * * * * * * * //

dimensions      [0 0 0 0 0 0 0];

internalField   nonuniform List<scalar> 
150
(
499.2623
499.2619
499.1265
499.1261
498.8935
498.8932
498.5825
498.5822
498.1975
498.1973
497.7289
497.7287
497.1552
497.1551
496.4458
496.4458
495.5649
495.5649
494.4756
494.4757
493.1458
493.1459
491.5531
491.5532
489.6898
489.69
487.5648
487.565
485.1973
485.1976
482.5914
482.5917
479.6472
479.6476
476.0311
476.0315
471.4748
471.4753
466.1003
466.1008
460.2085
460.2089
453.9275
453.928
447.3195
447.32
440.4268
440.4273
433.2876
433.2881
425.9396
425.9401
418.4188
418.4193
410.7576
410.7582
402.9835
402.984
395.1176
395.1181
387.174
387.1745
379.16
379.1605
371.0753
371.0757
362.9136
362.9139
354.6626
354.6628
346.3057
346.3059
337.823
337.8231
329.1919
329.1919
320.3887
320.3887
311.3891
311.3891
302.1689
302.1688
292.7038
292.7037
282.9706
282.9704
272.9459
272.9457
262.607
262.6069
251.9314
251.9312
240.8964
240.8962
229.4797
229.4796
217.6595
217.6595
205.4151
205.4151
192.7286
192.7286
179.5871
179.5872
165.9874
165.9876
151.9422
151.9424
137.4904
137.4905
122.7124
122.7125
107.7494
107.7495
92.8249
92.82506
78.25986
78.25999
64.4626
64.46271
51.87661
51.8767
40.88383
40.8839
31.70155
31.7016
24.33408
24.33411
18.60798
18.608
14.25625
14.25626
10.99919
10.9992
8.585086
8.585095
6.81588
6.815887
5.509872
5.509877
4.596779
4.596776
3.869087
3.869078
3.569014
3.569001
3.011417
3.011419
3.104697
3.104693
)
;

boundaryField
{
    leftandright
    {
        type            cyclic;
        value           nonuniform List<scalar> 
150
(
499.2621
499.1263
498.8933
498.5824
498.1974
497.7288
497.1551
496.4458
495.5649
494.4757
493.1459
491.5532
489.6899
487.5649
485.1975
482.5915
479.6474
476.0313
471.4751
466.1006
460.2087
453.9278
447.3198
440.427
433.2878
425.9398
418.4191
410.7579
402.9838
395.1178
387.1743
379.1602
371.0755
362.9137
354.6627
346.3058
337.823
329.1919
320.3887
311.3891
302.1688
292.7038
282.9705
272.9458
262.607
251.9313
240.8963
229.4796
217.6595
205.4151
192.7286
179.5872
165.9875
151.9423
137.4905
122.7125
107.7494
92.82498
78.25992
64.46265
51.87666
40.88387
31.70157
24.3341
18.60799
14.25626
10.9992
8.58509
6.815883
5.509875
4.596778
3.869082
3.569008
3.011418
3.104695
499.2621
499.1263
498.8933
498.5824
498.1974
497.7288
497.1551
496.4458
495.5649
494.4757
493.1459
491.5532
489.6899
487.5649
485.1975
482.5915
479.6474
476.0313
471.4751
466.1006
460.2087
453.9278
447.3198
440.427
433.2878
425.9398
418.4191
410.7579
402.9838
395.1178
387.1743
379.1602
371.0755
362.9137
354.6627
346.3058
337.823
329.1919
320.3887
311.3891
302.1688
292.7038
282.9705
272.9458
262.607
251.9313
240.8963
229.4796
217.6595
205.4151
192.7286
179.5872
165.9875
151.9423
137.4905
122.7125
107.7494
92.82498
78.25992
64.46265
51.87666
40.88387
31.70157
24.3341
18.60799
14.25626
10.9992
8.58509
6.815883
5.509875
4.596778
3.869082
3.569008
3.011418
3.104695
)
;
    }
    wall
    {
        type            calculated;
        value           nonuniform List<scalar> 2(499.2623 499.2619);
    }
    frontAndBack
    {
        type            empty;
    }
    middle
    {
        type            symmetryPlane;
        value           nonuniform List<scalar> 2(3.104697 3.104693);
    }
}


// ************************************************************************* //
