/*--------------------------------*- C++ -*----------------------------------*\
| =========                 |                                                 |
| \\      /  F ield         | foam-extend: Open Source CFD                    |
|  \\    /   O peration     | Version:     4.0                                |
|   \\  /    A nd           | Web:         http://www.foam-extend.org         |
|    \\/     M anipulation  |                                                 |
\*---------------------------------------------------------------------------*/
FoamFile
{
    version     2.0;
    format      ascii;
    class       volVectorField;
    location    "100";
    object      U;
}
// * * * * * * * * * * * * * * * * * * * * * * * * * * * * * * * * * * * * * //

dimensions      [0 1 -1 0 0 0 0];

internalField   nonuniform List<vector> 
150
(
(0.1185781 8.02908e-08 0)
(0.1185781 8.002843e-08 0)
(0.3614787 2.347998e-07 0)
(0.3614787 2.342254e-07 0)
(0.6164432 3.800838e-07 0)
(0.6164432 3.795718e-07 0)
(0.8840358 5.468246e-07 0)
(0.8840358 5.463563e-07 0)
(1.164821 7.24658e-07 0)
(1.164821 7.242034e-07 0)
(1.459352 9.03469e-07 0)
(1.459352 9.030232e-07 0)
(1.768146 1.072525e-06 0)
(1.768146 1.072091e-06 0)
(2.09167 1.219328e-06 0)
(2.09167 1.218905e-06 0)
(2.430315 1.329723e-06 0)
(2.430315 1.32931e-06 0)
(2.784367 1.389615e-06 0)
(2.784367 1.389208e-06 0)
(3.153997 1.387269e-06 0)
(3.153997 1.386864e-06 0)
(3.539244 1.316056e-06 0)
(3.539244 1.315649e-06 0)
(3.940019 1.180011e-06 0)
(3.940019 1.179599e-06 0)
(4.356114 1.003461e-06 0)
(4.356114 1.00304e-06 0)
(4.787229 8.110351e-07 0)
(4.787229 8.106039e-07 0)
(5.232993 4.541176e-07 0)
(5.232993 4.536764e-07 0)
(5.692997 -5.95242e-07 0)
(5.692997 -5.956898e-07 0)
(6.166385 -1.846578e-06 0)
(6.166385 -1.847031e-06 0)
(6.649875 -2.159527e-06 0)
(6.649875 -2.159983e-06 0)
(7.139751 -2.183754e-06 0)
(7.139751 -2.184204e-06 0)
(7.633974 -2.565123e-06 0)
(7.633974 -2.565561e-06 0)
(8.130521 -2.952622e-06 0)
(8.130521 -2.953045e-06 0)
(8.627419 -3.244079e-06 0)
(8.627419 -3.244478e-06 0)
(9.122783 -3.420747e-06 0)
(9.122783 -3.42112e-06 0)
(9.614838 -3.480465e-06 0)
(9.614838 -3.480814e-06 0)
(10.10195 -3.423736e-06 0)
(10.10194 -3.424039e-06 0)
(10.58262 -3.25799e-06 0)
(10.58262 -3.258248e-06 0)
(11.05556 -2.997805e-06 0)
(11.05556 -2.998048e-06 0)
(11.51962 -2.662614e-06 0)
(11.51962 -2.662788e-06 0)
(11.97386 -2.273949e-06 0)
(11.97386 -2.274114e-06 0)
(12.41752 -1.853291e-06 0)
(12.41752 -1.853412e-06 0)
(12.85003 -1.42027e-06 0)
(12.85003 -1.42037e-06 0)
(13.27096 -9.916606e-07 0)
(13.27096 -9.917433e-07 0)
(13.68006 -5.80719e-07 0)
(13.68006 -5.807899e-07 0)
(14.07722 -1.974006e-07 0)
(14.07722 -1.974215e-07 0)
(14.46243 1.517255e-07 0)
(14.46243 1.517576e-07 0)
(14.83582 4.628537e-07 0)
(14.83582 4.628428e-07 0)
(15.19759 7.343633e-07 0)
(15.19759 7.343409e-07 0)
(15.54801 9.665707e-07 0)
(15.54801 9.66598e-07 0)
(15.88743 1.161096e-06 0)
(15.88743 1.161158e-06 0)
(16.21623 1.320376e-06 0)
(16.21623 1.320391e-06 0)
(16.53481 1.447545e-06 0)
(16.53481 1.447564e-06 0)
(16.84363 1.546153e-06 0)
(16.84363 1.546177e-06 0)
(17.14312 1.61957e-06 0)
(17.14312 1.619666e-06 0)
(17.43374 1.671505e-06 0)
(17.43374 1.671639e-06 0)
(17.71592 1.705356e-06 0)
(17.71592 1.705493e-06 0)
(17.9901 1.724102e-06 0)
(17.9901 1.724238e-06 0)
(18.2567 1.730589e-06 0)
(18.2567 1.730799e-06 0)
(18.51611 1.727203e-06 0)
(18.51611 1.727413e-06 0)
(18.76868 1.715707e-06 0)
(18.76868 1.715944e-06 0)
(19.01476 1.697146e-06 0)
(19.01476 1.697392e-06 0)
(19.25462 1.671462e-06 0)
(19.25462 1.671635e-06 0)
(19.48852 1.637407e-06 0)
(19.48852 1.637669e-06 0)
(19.71666 1.591942e-06 0)
(19.71666 1.592169e-06 0)
(19.93918 1.530912e-06 0)
(19.93918 1.531065e-06 0)
(20.15616 1.450047e-06 0)
(20.15616 1.450162e-06 0)
(20.36758 1.349377e-06 0)
(20.36758 1.349478e-06 0)
(20.57336 1.240986e-06 0)
(20.57336 1.241045e-06 0)
(20.7733 1.153791e-06 0)
(20.7733 1.153746e-06 0)
(20.96709 1.125403e-06 0)
(20.96709 1.125327e-06 0)
(21.15428 1.170649e-06 0)
(21.15428 1.170563e-06 0)
(21.33432 1.245836e-06 0)
(21.33432 1.24574e-06 0)
(21.50654 1.247286e-06 0)
(21.50654 1.247208e-06 0)
(21.67019 1.105564e-06 0)
(21.67019 1.105494e-06 0)
(21.82446 7.096533e-07 0)
(21.82446 7.0959e-07 0)
(21.96858 4.564927e-07 0)
(21.96858 4.564559e-07 0)
(22.10177 -1.224477e-06 0)
(22.10177 -1.224505e-06 0)
(22.22334 1.763553e-06 0)
(22.22334 1.763509e-06 0)
(22.3327 -9.619329e-06 0)
(22.3327 -9.619352e-06 0)
(22.4293 5.381393e-05 0)
(22.4293 5.381388e-05 0)
(22.51254 -0.0001617957 0)
(22.51254 -0.0001617958 0)
(22.58166 0.0005615005 0)
(22.58166 0.0005615004 0)
(22.63571 -0.001909015 0)
(22.63571 -0.001909015 0)
(22.67352 0.006163975 0)
(22.67352 0.006163975 0)
(22.69355 -0.01209284 0)
(22.69355 -0.01209284 0)
)
;

boundaryField
{
    leftandright
    {
        type            cyclic;
        value           nonuniform List<vector> 
150
(
(0.1185781 8.015961e-08 0)
(0.3614787 2.345126e-07 0)
(0.6164432 3.798278e-07 0)
(0.8840358 5.465905e-07 0)
(1.164821 7.244307e-07 0)
(1.459352 9.032461e-07 0)
(1.768146 1.072308e-06 0)
(2.09167 1.219117e-06 0)
(2.430315 1.329517e-06 0)
(2.784367 1.389412e-06 0)
(3.153997 1.387066e-06 0)
(3.539244 1.315852e-06 0)
(3.940019 1.179805e-06 0)
(4.356114 1.00325e-06 0)
(4.787229 8.108195e-07 0)
(5.232993 4.53897e-07 0)
(5.692997 -5.954659e-07 0)
(6.166385 -1.846805e-06 0)
(6.649875 -2.159755e-06 0)
(7.139751 -2.183979e-06 0)
(7.633974 -2.565342e-06 0)
(8.130521 -2.952834e-06 0)
(8.627419 -3.244278e-06 0)
(9.122783 -3.420934e-06 0)
(9.614838 -3.48064e-06 0)
(10.10194 -3.423887e-06 0)
(10.58262 -3.258119e-06 0)
(11.05556 -2.997927e-06 0)
(11.51962 -2.662701e-06 0)
(11.97386 -2.274031e-06 0)
(12.41752 -1.853352e-06 0)
(12.85003 -1.42032e-06 0)
(13.27096 -9.91702e-07 0)
(13.68006 -5.807545e-07 0)
(14.07722 -1.974111e-07 0)
(14.46243 1.517416e-07 0)
(14.83582 4.628483e-07 0)
(15.19759 7.343521e-07 0)
(15.54801 9.665843e-07 0)
(15.88743 1.161127e-06 0)
(16.21623 1.320384e-06 0)
(16.53481 1.447555e-06 0)
(16.84363 1.546165e-06 0)
(17.14312 1.619618e-06 0)
(17.43374 1.671572e-06 0)
(17.71592 1.705424e-06 0)
(17.9901 1.72417e-06 0)
(18.2567 1.730694e-06 0)
(18.51611 1.727308e-06 0)
(18.76868 1.715826e-06 0)
(19.01476 1.697269e-06 0)
(19.25462 1.671548e-06 0)
(19.48852 1.637538e-06 0)
(19.71666 1.592055e-06 0)
(19.93918 1.530989e-06 0)
(20.15616 1.450105e-06 0)
(20.36758 1.349428e-06 0)
(20.57336 1.241015e-06 0)
(20.7733 1.153768e-06 0)
(20.96709 1.125365e-06 0)
(21.15428 1.170606e-06 0)
(21.33432 1.245788e-06 0)
(21.50654 1.247247e-06 0)
(21.67019 1.105529e-06 0)
(21.82446 7.096216e-07 0)
(21.96858 4.564743e-07 0)
(22.10177 -1.224491e-06 0)
(22.22334 1.763531e-06 0)
(22.3327 -9.619341e-06 0)
(22.4293 5.38139e-05 0)
(22.51254 -0.0001617958 0)
(22.58166 0.0005615004 0)
(22.63571 -0.001909015 0)
(22.67352 0.006163975 0)
(22.69355 -0.01209284 0)
(0.1185781 8.015961e-08 0)
(0.3614787 2.345126e-07 0)
(0.6164432 3.798278e-07 0)
(0.8840358 5.465905e-07 0)
(1.164821 7.244307e-07 0)
(1.459352 9.032461e-07 0)
(1.768146 1.072308e-06 0)
(2.09167 1.219117e-06 0)
(2.430315 1.329517e-06 0)
(2.784367 1.389412e-06 0)
(3.153997 1.387066e-06 0)
(3.539244 1.315852e-06 0)
(3.940019 1.179805e-06 0)
(4.356114 1.00325e-06 0)
(4.787229 8.108195e-07 0)
(5.232993 4.53897e-07 0)
(5.692997 -5.954659e-07 0)
(6.166385 -1.846805e-06 0)
(6.649875 -2.159755e-06 0)
(7.139751 -2.183979e-06 0)
(7.633974 -2.565342e-06 0)
(8.130521 -2.952834e-06 0)
(8.627419 -3.244278e-06 0)
(9.122783 -3.420934e-06 0)
(9.614838 -3.48064e-06 0)
(10.10194 -3.423887e-06 0)
(10.58262 -3.258119e-06 0)
(11.05556 -2.997927e-06 0)
(11.51962 -2.662701e-06 0)
(11.97386 -2.274031e-06 0)
(12.41752 -1.853352e-06 0)
(12.85003 -1.42032e-06 0)
(13.27096 -9.91702e-07 0)
(13.68006 -5.807545e-07 0)
(14.07722 -1.974111e-07 0)
(14.46243 1.517416e-07 0)
(14.83582 4.628483e-07 0)
(15.19759 7.343521e-07 0)
(15.54801 9.665843e-07 0)
(15.88743 1.161127e-06 0)
(16.21623 1.320384e-06 0)
(16.53481 1.447555e-06 0)
(16.84363 1.546165e-06 0)
(17.14312 1.619618e-06 0)
(17.43374 1.671572e-06 0)
(17.71592 1.705424e-06 0)
(17.9901 1.72417e-06 0)
(18.2567 1.730694e-06 0)
(18.51611 1.727308e-06 0)
(18.76868 1.715826e-06 0)
(19.01476 1.697269e-06 0)
(19.25462 1.671548e-06 0)
(19.48852 1.637538e-06 0)
(19.71666 1.592055e-06 0)
(19.93918 1.530989e-06 0)
(20.15616 1.450105e-06 0)
(20.36758 1.349428e-06 0)
(20.57336 1.241015e-06 0)
(20.7733 1.153768e-06 0)
(20.96709 1.125365e-06 0)
(21.15428 1.170606e-06 0)
(21.33432 1.245788e-06 0)
(21.50654 1.247247e-06 0)
(21.67019 1.105529e-06 0)
(21.82446 7.096216e-07 0)
(21.96858 4.564743e-07 0)
(22.10177 -1.224491e-06 0)
(22.22334 1.763531e-06 0)
(22.3327 -9.619341e-06 0)
(22.4293 5.38139e-05 0)
(22.51254 -0.0001617958 0)
(22.58166 0.0005615004 0)
(22.63571 -0.001909015 0)
(22.67352 0.006163975 0)
(22.69355 -0.01209284 0)
)
;
    }
    wall
    {
        type            fixedValue;
        value           uniform (0 0 0);
    }
    frontAndBack
    {
        type            empty;
    }
    middle
    {
        type            symmetryPlane;
        value           nonuniform List<vector> 2((22.69355 0 0) (22.69355 0 0));
    }
}


// ************************************************************************* //
