/*--------------------------------*- C++ -*----------------------------------*\
| =========                 |                                                 |
| \\      /  F ield         | foam-extend: Open Source CFD                    |
|  \\    /   O peration     | Version:     4.0                                |
|   \\  /    A nd           | Web:         http://www.foam-extend.org         |
|    \\/     M anipulation  |                                                 |
\*---------------------------------------------------------------------------*/
FoamFile
{
    version     2.0;
    format      ascii;
    class       volScalarField;
    location    "100";
    object      Ceps1;
}
// * * * * * * * * * * * * * * * * * * * * * * * * * * * * * * * * * * * * * //

dimensions      [0 0 0 0 0 0 0];

internalField   nonuniform List<scalar> 
150
(
11.17561
11.17561
5.956399
5.956399
4.348499
4.348499
3.581825
3.581825
3.135989
3.135989
2.845636
2.845636
2.642226
2.642226
2.492293
2.492293
2.377559
2.377559
2.287191
2.287191
2.214348
2.214348
2.15449
2.15449
2.104477
2.104477
2.062067
2.062067
2.025616
2.025616
1.993892
1.993892
1.965958
1.965958
1.941183
1.941183
1.918953
1.918953
1.898675
1.898675
1.879891
1.879891
1.86228
1.86228
1.845618
1.845618
1.829752
1.829752
1.814578
1.814578
1.800029
1.800029
1.78606
1.78606
1.772643
1.772643
1.75976
1.75976
1.747396
1.747396
1.735543
1.735543
1.724191
1.724191
1.713331
1.713331
1.702952
1.702952
1.693042
1.693042
1.68359
1.68359
1.67458
1.67458
1.665997
1.665997
1.657825
1.657825
1.650047
1.650047
1.642644
1.642644
1.635599
1.635599
1.628894
1.628894
1.62251
1.62251
1.616429
1.616429
1.610633
1.610633
1.605106
1.605106
1.599828
1.599828
1.594784
1.594784
1.589956
1.589956
1.585327
1.585327
1.580881
1.580881
1.576601
1.576601
1.572472
1.572472
1.568477
1.568477
1.5646
1.5646
1.560826
1.560826
1.557141
1.557141
1.553531
1.553531
1.549986
1.549986
1.546498
1.546498
1.543064
1.543064
1.539686
1.539686
1.536376
1.536376
1.533154
1.533154
1.530054
1.530054
1.527125
1.527125
1.524434
1.524434
1.522069
1.522069
1.520072
1.520072
1.518403
1.518403
1.517043
1.517043
1.51599
1.51599
1.515258
1.515258
1.51487
1.51487
)
;

boundaryField
{
    leftandright
    {
        type            cyclic;
        value           nonuniform List<scalar> 
150
(
11.17561
5.956399
4.348499
3.581825
3.135989
2.845636
2.642226
2.492293
2.377559
2.287191
2.214348
2.15449
2.104477
2.062067
2.025616
1.993892
1.965958
1.941183
1.918953
1.898675
1.879891
1.86228
1.845618
1.829752
1.814578
1.800029
1.78606
1.772643
1.75976
1.747396
1.735543
1.724191
1.713331
1.702952
1.693042
1.68359
1.67458
1.665997
1.657825
1.650047
1.642644
1.635599
1.628894
1.62251
1.616429
1.610633
1.605106
1.599828
1.594784
1.589956
1.585327
1.580881
1.576601
1.572472
1.568477
1.5646
1.560826
1.557141
1.553531
1.549986
1.546498
1.543064
1.539686
1.536376
1.533154
1.530054
1.527125
1.524434
1.522069
1.520072
1.518403
1.517043
1.51599
1.515258
1.51487
11.17561
5.956399
4.348499
3.581825
3.135989
2.845636
2.642226
2.492293
2.377559
2.287191
2.214348
2.15449
2.104477
2.062067
2.025616
1.993892
1.965958
1.941183
1.918953
1.898675
1.879891
1.86228
1.845618
1.829752
1.814578
1.800029
1.78606
1.772643
1.75976
1.747396
1.735543
1.724191
1.713331
1.702952
1.693042
1.68359
1.67458
1.665997
1.657825
1.650047
1.642644
1.635599
1.628894
1.62251
1.616429
1.610633
1.605106
1.599828
1.594784
1.589956
1.585327
1.580881
1.576601
1.572472
1.568477
1.5646
1.560826
1.557141
1.553531
1.549986
1.546498
1.543064
1.539686
1.536376
1.533154
1.530054
1.527125
1.524434
1.522069
1.520072
1.518403
1.517043
1.51599
1.515258
1.51487
)
;
    }
    wall
    {
        type            calculated;
        value           uniform 1.463;
    }
    frontAndBack
    {
        type            empty;
    }
    middle
    {
        type            symmetryPlane;
        value           nonuniform List<scalar> 2(1.51487 1.51487);
    }
}


// ************************************************************************* //
