/*--------------------------------*- C++ -*----------------------------------*\
| =========                 |                                                 |
| \\      /  F ield         | foam-extend: Open Source CFD                    |
|  \\    /   O peration     | Version:     4.0                                |
|   \\  /    A nd           | Web:         http://www.foam-extend.org         |
|    \\/     M anipulation  |                                                 |
\*---------------------------------------------------------------------------*/
FoamFile
{
    version     2.0;
    format      ascii;
    class       volSymmTensorField;
    location    "100";
    object      DiffC;
}
// * * * * * * * * * * * * * * * * * * * * * * * * * * * * * * * * * * * * * //

dimensions      [0 0 -1 0 0 0 0];

internalField   nonuniform List<symmTensor> 
150
(
(-9.262344 -0.1343067 0 0.007492227 0 0.006643186)
(-8.873741 -0.107645 0 0.007504283 0 0.007218078)
(-5.540299 -0.02648107 0 0.007027576 0 0.007319614)
(-6.466584 -0.04587368 0 0.007137731 0 0.006757884)
(-4.952931 0.0006744571 0 0.006666731 0 0.006157117)
(-4.5784 -0.004464026 0 0.006663416 0 0.006084341)
(-4.003091 0.00999619 0 0.006509311 0 0.005553116)
(-3.873831 0.006783378 0 0.00647884 0 0.005633447)
(-3.988434 0.002715367 0 0.006783985 0 0.00548217)
(-3.972659 0.002532177 0 0.006758825 0 0.005506967)
(-4.538833 -0.008812452 0 0.007532809 0 0.005679103)
(-4.538746 -0.008019748 0 0.007515805 0 0.005676272)
(-5.305155 -0.01994817 0 0.008679578 0 0.006053399)
(-5.306333 -0.01927443 0 0.008669614 0 0.006045369)
(-6.048779 -0.02802428 0 0.01008073 0 0.006487031)
(-6.049627 -0.02723201 0 0.01007566 0 0.006481788)
(-6.595188 -0.03068268 0 0.01155415 0 0.006852205)
(-6.595992 -0.03031211 0 0.01155191 0 0.006848357)
(-6.815954 -0.02767874 0 0.01290928 0 0.00703522)
(-6.816916 -0.02740445 0 0.01290846 0 0.007033027)
(-6.64904 -0.01827896 0 0.01399162 0 0.006986065)
(-6.647571 -0.01818419 0 0.01399131 0 0.006983835)
(-6.109644 -0.00348292 0 0.01474105 0 0.006732174)
(-6.111677 -0.003369189 0 0.0147418 0 0.006732325)
(-5.351794 0.016175 0 0.01527527 0 0.006435326)
(-5.352605 0.01603587 0 0.01527594 0 0.006434095)
(-4.730715 0.03704346 0 0.01600828 0 0.00641064)
(-4.730133 0.0368848 0 0.01600839 0 0.006409969)
(-5.066983 0.04641392 0 0.01786443 0 0.007128104)
(-5.066701 0.0464679 0 0.01786444 0 0.007127331)
(-8.267177 -0.008475634 0 0.02208706 0 0.008931913)
(-8.267341 -0.008500304 0 0.02208722 0 0.008933646)
(-11.93655 -0.09336923 0 0.02963916 0 0.01060339)
(-11.93756 -0.09340833 0 0.02963943 0 0.01060297)
(-11.15216 -0.09609973 0 0.02908268 0 0.01005873)
(-11.15222 -0.0962167 0 0.02908219 0 0.01005884)
(-6.728958 -0.03802654 0 0.0233717 0 0.007328928)
(-6.727257 -0.03805265 0 0.02337062 0 0.007329652)
(-3.266205 -0.01358528 0 0.01876965 0 0.004387658)
(-3.267542 -0.01359309 0 0.01876934 0 0.004387964)
(-1.467268 -0.02117427 0 0.01523771 0 0.002223158)
(-1.46648 -0.02111974 0 0.01523722 0 0.00222368)
(-0.3558714 -0.03252832 0 0.01242514 0 0.0007431047)
(-0.3560248 -0.03266569 0 0.01242432 0 0.0007418581)
(0.4453624 -0.04139128 0 0.01003069 0 -0.0002973289)
(0.4454309 -0.04135199 0 0.01003023 0 -0.0002963665)
(1.06103 -0.04730914 0 0.007851001 0 -0.001057088)
(1.061009 -0.04731144 0 0.007850531 0 -0.001057748)
(1.538134 -0.05121866 0 0.005777206 0 -0.001625551)
(1.538104 -0.05121664 0 0.005777286 0 -0.001625307)
(1.896115 -0.05341003 0 0.003768408 0 -0.002043123)
(1.896078 -0.05341438 0 0.003767766 0 -0.002043407)
(2.149266 -0.0541152 0 0.001814942 0 -0.002340172)
(2.149613 -0.05412323 0 0.001814692 0 -0.00234094)
(2.312666 -0.05340005 0 -7.27514e-05 0 -0.002531297)
(2.311452 -0.05339771 0 -7.154903e-05 0 -0.002531554)
(2.397439 -0.05136669 0 -0.001868626 0 -0.002635592)
(2.398478 -0.0513712 0 -0.001870157 0 -0.002635978)
(2.419325 -0.04810655 0 -0.003546776 0 -0.002666339)
(2.419276 -0.04811055 0 -0.003548743 0 -0.002666359)
(2.38976 -0.04377106 0 -0.005074677 0 -0.002637601)
(2.389107 -0.04377423 0 -0.005071093 0 -0.002638766)
(2.318338 -0.03851354 0 -0.00640817 0 -0.00256299)
(2.318579 -0.03851397 0 -0.006409961 0 -0.002563012)
(2.216317 -0.03256423 0 -0.00752495 0 -0.002452396)
(2.216293 -0.03256591 0 -0.007525443 0 -0.002452389)
(2.092317 -0.02611448 0 -0.00839605 0 -0.002316304)
(2.092293 -0.02611844 0 -0.0083977 0 -0.002316531)
(1.952746 -0.0194376 0 -0.009000866 0 -0.002162852)
(1.952529 -0.01943532 0 -0.008998186 0 -0.002163439)
(1.8048 -0.0127599 0 -0.009330678 0 -0.00199929)
(1.804993 -0.01276101 0 -0.009333435 0 -0.001999249)
(1.652735 -0.006311861 0 -0.009398146 0 -0.001830913)
(1.652757 -0.006311237 0 -0.009395953 0 -0.001831165)
(1.500413 -0.0003192969 0 -0.009205534 0 -0.001662391)
(1.500402 -0.000318 0 -0.009207919 0 -0.001662266)
(1.350878 0.005052668 0 -0.008792716 0 -0.001496706)
(1.35087 0.005051947 0 -0.008791761 0 -0.001496561)
(1.206404 0.009652368 0 -0.008187666 0 -0.001336399)
(1.206412 0.009654413 0 -0.008186747 0 -0.001336615)
(1.068652 0.01340018 0 -0.00743777 0 -0.001184122)
(1.068683 0.0134005 0 -0.007439712 0 -0.001183922)
(0.9389361 0.01624357 0 -0.006594329 0 -0.001040503)
(0.9389319 0.01624331 0 -0.006593555 0 -0.001040286)
(0.8181577 0.0181998 0 -0.005698012 0 -0.0009067788)
(0.8181636 0.01820152 0 -0.005697966 0 -0.0009067493)
(0.7069683 0.01931352 0 -0.004797138 0 -0.0007837518)
(0.7069731 0.01931585 0 -0.004797093 0 -0.0007836067)
(0.6057628 0.01967663 0 -0.003930282 0 -0.0006719725)
(0.6057582 0.01967379 0 -0.00393091 0 -0.0006715884)
(0.5147202 0.01939866 0 -0.003127783 0 -0.0005710631)
(0.514732 0.01940145 0 -0.003126417 0 -0.0005710878)
(0.4337819 0.01861416 0 -0.00240866 0 -0.0004816232)
(0.4337851 0.0186144 0 -0.002409139 0 -0.0004814543)
(0.3626919 0.0174537 0 -0.001788183 0 -0.0004028265)
(0.3627001 0.01745321 0 -0.001788163 0 -0.0004028061)
(0.3009929 0.01604023 0 -0.001265859 0 -0.0003346081)
(0.3009881 0.01604028 0 -0.001265823 0 -0.0003345431)
(0.2480648 0.01448994 0 -0.0008427542 0 -0.0002759576)
(0.248065 0.01448996 0 -0.0008427274 0 -0.0002758614)
(0.2031613 0.01289389 0 -0.000507965 0 -0.0002261393)
(0.2031654 0.01289388 0 -0.0005079493 0 -0.0002261201)
(0.1654828 0.01132454 0 -0.0002525759 0 -0.0001843706)
(0.1654733 0.01132489 0 -0.0002525571 0 -0.0001843778)
(0.1341556 0.009838029 0 -6.320702e-05 0 -0.000149528)
(0.1341589 0.009837129 0 -6.323162e-05 0 -0.0001496272)
(0.1083599 0.008464316 0 7.019862e-05 0 -0.0001209777)
(0.1083629 0.008464917 0 7.020617e-05 0 -0.0001209329)
(0.08728631 0.00722666 0 0.0001623966 0 -9.748458e-05)
(0.08728151 0.007225896 0 0.0001623673 0 -9.754916e-05)
(0.07017863 0.006131139 0 0.0002197676 0 -7.84496e-05)
(0.07017492 0.006131636 0 0.0002197699 0 -7.850839e-05)
(0.05639496 0.005178447 0 0.0002534332 0 -6.315176e-05)
(0.05639647 0.005178033 0 0.0002534122 0 -6.314126e-05)
(0.04533896 0.004361255 0 0.0002690548 0 -5.08294e-05)
(0.04533859 0.004360883 0 0.0002690389 0 -5.083704e-05)
(0.03650908 0.003668099 0 0.0002728429 0 -4.096189e-05)
(0.03650879 0.003668299 0 0.0002728465 0 -4.098222e-05)
(0.0294791 0.00308968 0 0.0002695378 0 -3.314793e-05)
(0.02947879 0.003089681 0 0.0002693912 0 -3.309408e-05)
(0.02388672 0.002609673 0 0.000261565 0 -2.690521e-05)
(0.02388626 0.002609687 0 0.0002619859 0 -2.691591e-05)
(0.01943384 0.002216314 0 0.0002528278 0 -2.189551e-05)
(0.01943383 0.002216341 0 0.0002527056 0 -2.190479e-05)
(0.01587201 0.001895124 0 0.0002431338 0 -1.796258e-05)
(0.01587184 0.001895052 0 0.0002431356 0 -1.793175e-05)
(0.01300141 0.001633591 0 0.0002355377 0 -1.478297e-05)
(0.01300112 0.001633583 0 0.0002355393 0 -1.475609e-05)
(0.01065319 0.001417292 0 0.0002275532 0 -1.213531e-05)
(0.01065328 0.001417279 0 0.0002275512 0 -1.214539e-05)
(0.008721364 0.001239541 0 0.0002264036 0 -1.000898e-05)
(0.00872141 0.001239496 0 0.0002263942 0 -9.996182e-06)
(0.007067378 0.001075719 0 0.0002128307 0 -8.110648e-06)
(0.007067035 0.001075634 0 0.0002128076 0 -8.128852e-06)
(0.00569974 0.0009370061 0 0.0002315413 0 -6.526046e-06)
(0.005699422 0.0009369046 0 0.0002314987 0 -6.57447e-06)
(0.004319426 0.0007293606 0 0.0001289649 0 -4.780058e-06)
(0.004319012 0.0007292246 0 0.0001289629 0 -4.967793e-06)
(0.003801984 0.0006945387 0 0.0004269652 0 -4.455165e-06)
(0.003801953 0.0006945024 0 0.0004266479 0 -4.737625e-06)
(0.001796958 0.0002764305 0 -0.0004696736 0 -1.606512e-06)
(0.00179703 0.0002766004 0 -0.0004696034 0 -1.728999e-06)
(0.004643089 0.0008083738 0 0.002138471 0 -7.774e-06)
(0.004643534 0.0008087861 0 0.002138474 0 -7.422659e-06)
(-0.003313995 -0.0004182678 0 -0.003947445 0 5.464864e-06)
(-0.003313045 -0.0004182649 0 -0.003946535 0 6.785152e-06)
(0.007345916 0.0007300079 0 0.005114109 0 -9.808776e-06)
(0.007345489 0.0007296881 0 0.00511378 0 -1.032941e-05)
(-0.001404182 -0.0002050797 0 -0.002129983 0 2.070883e-06)
(-0.001404022 -0.0002049785 0 -0.002129692 0 2.235289e-06)
)
;

boundaryField
{
    leftandright
    {
        type            cyclic;
        value           nonuniform List<symmTensor> 
150
(
(-9.068042 -0.1209758 0 0.007498255 0 0.006930632)
(-6.003441 -0.03617737 0 0.007082653 0 0.007038749)
(-4.765666 -0.001894785 0 0.006665073 0 0.006120729)
(-3.938461 0.008389784 0 0.006494076 0 0.005593281)
(-3.980547 0.002623772 0 0.006771405 0 0.005494569)
(-4.538789 -0.0084161 0 0.007524307 0 0.005677688)
(-5.305744 -0.0196113 0 0.008674596 0 0.006049384)
(-6.049203 -0.02762815 0 0.01007819 0 0.006484409)
(-6.59559 -0.0304974 0 0.01155303 0 0.006850281)
(-6.816435 -0.0275416 0 0.01290887 0 0.007034124)
(-6.648306 -0.01823158 0 0.01399147 0 0.00698495)
(-6.11066 -0.003426055 0 0.01474142 0 0.006732249)
(-5.352199 0.01610544 0 0.01527561 0 0.00643471)
(-4.730424 0.03696413 0 0.01600833 0 0.006410304)
(-5.066842 0.04644091 0 0.01786443 0 0.007127717)
(-8.267259 -0.008487969 0 0.02208714 0 0.00893278)
(-11.93705 -0.09338878 0 0.0296393 0 0.01060318)
(-11.15219 -0.09615821 0 0.02908243 0 0.01005879)
(-6.728108 -0.0380396 0 0.02337116 0 0.00732929)
(-3.266874 -0.01358919 0 0.01876949 0 0.004387811)
(-1.466874 -0.021147 0 0.01523746 0 0.002223419)
(-0.3559481 -0.032597 0 0.01242473 0 0.0007424814)
(0.4453966 -0.04137164 0 0.01003046 0 -0.0002968477)
(1.06102 -0.04731029 0 0.007850766 0 -0.001057418)
(1.538119 -0.05121765 0 0.005777246 0 -0.001625429)
(1.896096 -0.0534122 0 0.003768087 0 -0.002043265)
(2.14944 -0.05411922 0 0.001814817 0 -0.002340556)
(2.312059 -0.05339888 0 -7.215022e-05 0 -0.002531426)
(2.397958 -0.05136894 0 -0.001869392 0 -0.002635785)
(2.4193 -0.04810855 0 -0.00354776 0 -0.002666349)
(2.389434 -0.04377265 0 -0.005072885 0 -0.002638183)
(2.318459 -0.03851375 0 -0.006409066 0 -0.002563001)
(2.216305 -0.03256507 0 -0.007525197 0 -0.002452392)
(2.092305 -0.02611646 0 -0.008396875 0 -0.002316417)
(1.952638 -0.01943646 0 -0.008999526 0 -0.002163145)
(1.804896 -0.01276045 0 -0.009332056 0 -0.00199927)
(1.652746 -0.006311549 0 -0.00939705 0 -0.001831039)
(1.500407 -0.0003186485 0 -0.009206726 0 -0.001662329)
(1.350874 0.005052308 0 -0.008792238 0 -0.001496633)
(1.206408 0.00965339 0 -0.008187206 0 -0.001336507)
(1.068667 0.01340034 0 -0.007438741 0 -0.001184022)
(0.938934 0.01624344 0 -0.006593942 0 -0.001040395)
(0.8181606 0.01820066 0 -0.005697989 0 -0.000906764)
(0.7069707 0.01931468 0 -0.004797116 0 -0.0007836793)
(0.6057605 0.01967521 0 -0.003930596 0 -0.0006717805)
(0.5147261 0.01940005 0 -0.0031271 0 -0.0005710755)
(0.4337835 0.01861428 0 -0.002408899 0 -0.0004815388)
(0.362696 0.01745345 0 -0.001788173 0 -0.0004028163)
(0.3009905 0.01604026 0 -0.001265841 0 -0.0003345756)
(0.2480649 0.01448995 0 -0.0008427408 0 -0.0002759095)
(0.2031633 0.01289389 0 -0.0005079571 0 -0.0002261297)
(0.165478 0.01132471 0 -0.0002525665 0 -0.0001843742)
(0.1341572 0.009837579 0 -6.321932e-05 0 -0.0001495776)
(0.1083614 0.008464616 0 7.02024e-05 0 -0.0001209553)
(0.08728391 0.007226278 0 0.0001623819 0 -9.751687e-05)
(0.07017677 0.006131387 0 0.0002197687 0 -7.847899e-05)
(0.05639572 0.00517824 0 0.0002534227 0 -6.314651e-05)
(0.04533877 0.004361069 0 0.0002690468 0 -5.083322e-05)
(0.03650894 0.003668199 0 0.0002728447 0 -4.097205e-05)
(0.02947895 0.00308968 0 0.0002694645 0 -3.3121e-05)
(0.02388649 0.00260968 0 0.0002617755 0 -2.691056e-05)
(0.01943383 0.002216328 0 0.0002527667 0 -2.190015e-05)
(0.01587193 0.001895088 0 0.0002431347 0 -1.794717e-05)
(0.01300127 0.001633587 0 0.0002355385 0 -1.476953e-05)
(0.01065323 0.001417286 0 0.0002275522 0 -1.214035e-05)
(0.008721387 0.001239518 0 0.0002263989 0 -1.000258e-05)
(0.007067206 0.001075676 0 0.0002128191 0 -8.11975e-06)
(0.005699581 0.0009369554 0 0.00023152 0 -6.550258e-06)
(0.004319219 0.0007292926 0 0.0001289639 0 -4.873926e-06)
(0.003801968 0.0006945205 0 0.0004268065 0 -4.596395e-06)
(0.001796994 0.0002765154 0 -0.0004696385 0 -1.667756e-06)
(0.004643312 0.0008085799 0 0.002138473 0 -7.598329e-06)
(-0.00331352 -0.0004182664 0 -0.00394699 0 6.125008e-06)
(0.007345703 0.000729848 0 0.005113945 0 -1.00691e-05)
(-0.001404102 -0.0002050291 0 -0.002129837 0 2.153086e-06)
(-9.068042 -0.1209758 0 0.007498255 0 0.006930632)
(-6.003441 -0.03617737 0 0.007082653 0 0.007038749)
(-4.765666 -0.001894785 0 0.006665073 0 0.006120729)
(-3.938461 0.008389784 0 0.006494076 0 0.005593281)
(-3.980547 0.002623772 0 0.006771405 0 0.005494569)
(-4.538789 -0.0084161 0 0.007524307 0 0.005677688)
(-5.305744 -0.0196113 0 0.008674596 0 0.006049384)
(-6.049203 -0.02762815 0 0.01007819 0 0.006484409)
(-6.59559 -0.0304974 0 0.01155303 0 0.006850281)
(-6.816435 -0.0275416 0 0.01290887 0 0.007034124)
(-6.648306 -0.01823158 0 0.01399147 0 0.00698495)
(-6.11066 -0.003426055 0 0.01474142 0 0.006732249)
(-5.352199 0.01610544 0 0.01527561 0 0.00643471)
(-4.730424 0.03696413 0 0.01600833 0 0.006410304)
(-5.066842 0.04644091 0 0.01786443 0 0.007127717)
(-8.267259 -0.008487969 0 0.02208714 0 0.00893278)
(-11.93705 -0.09338878 0 0.0296393 0 0.01060318)
(-11.15219 -0.09615821 0 0.02908243 0 0.01005879)
(-6.728108 -0.0380396 0 0.02337116 0 0.00732929)
(-3.266874 -0.01358919 0 0.01876949 0 0.004387811)
(-1.466874 -0.021147 0 0.01523746 0 0.002223419)
(-0.3559481 -0.032597 0 0.01242473 0 0.0007424814)
(0.4453966 -0.04137164 0 0.01003046 0 -0.0002968477)
(1.06102 -0.04731029 0 0.007850766 0 -0.001057418)
(1.538119 -0.05121765 0 0.005777246 0 -0.001625429)
(1.896096 -0.0534122 0 0.003768087 0 -0.002043265)
(2.14944 -0.05411922 0 0.001814817 0 -0.002340556)
(2.312059 -0.05339888 0 -7.215022e-05 0 -0.002531426)
(2.397958 -0.05136894 0 -0.001869392 0 -0.002635785)
(2.4193 -0.04810855 0 -0.00354776 0 -0.002666349)
(2.389434 -0.04377265 0 -0.005072885 0 -0.002638183)
(2.318459 -0.03851375 0 -0.006409066 0 -0.002563001)
(2.216305 -0.03256507 0 -0.007525197 0 -0.002452392)
(2.092305 -0.02611646 0 -0.008396875 0 -0.002316417)
(1.952638 -0.01943646 0 -0.008999526 0 -0.002163145)
(1.804896 -0.01276045 0 -0.009332056 0 -0.00199927)
(1.652746 -0.006311549 0 -0.00939705 0 -0.001831039)
(1.500407 -0.0003186485 0 -0.009206726 0 -0.001662329)
(1.350874 0.005052308 0 -0.008792238 0 -0.001496633)
(1.206408 0.00965339 0 -0.008187206 0 -0.001336507)
(1.068667 0.01340034 0 -0.007438741 0 -0.001184022)
(0.938934 0.01624344 0 -0.006593942 0 -0.001040395)
(0.8181606 0.01820066 0 -0.005697989 0 -0.000906764)
(0.7069707 0.01931468 0 -0.004797116 0 -0.0007836793)
(0.6057605 0.01967521 0 -0.003930596 0 -0.0006717805)
(0.5147261 0.01940005 0 -0.0031271 0 -0.0005710755)
(0.4337835 0.01861428 0 -0.002408899 0 -0.0004815388)
(0.362696 0.01745345 0 -0.001788173 0 -0.0004028163)
(0.3009905 0.01604026 0 -0.001265841 0 -0.0003345756)
(0.2480649 0.01448995 0 -0.0008427408 0 -0.0002759095)
(0.2031633 0.01289389 0 -0.0005079571 0 -0.0002261297)
(0.165478 0.01132471 0 -0.0002525665 0 -0.0001843742)
(0.1341572 0.009837579 0 -6.321932e-05 0 -0.0001495776)
(0.1083614 0.008464616 0 7.02024e-05 0 -0.0001209553)
(0.08728391 0.007226278 0 0.0001623819 0 -9.751687e-05)
(0.07017677 0.006131387 0 0.0002197687 0 -7.847899e-05)
(0.05639572 0.00517824 0 0.0002534227 0 -6.314651e-05)
(0.04533877 0.004361069 0 0.0002690468 0 -5.083322e-05)
(0.03650894 0.003668199 0 0.0002728447 0 -4.097205e-05)
(0.02947895 0.00308968 0 0.0002694645 0 -3.3121e-05)
(0.02388649 0.00260968 0 0.0002617755 0 -2.691056e-05)
(0.01943383 0.002216328 0 0.0002527667 0 -2.190015e-05)
(0.01587193 0.001895088 0 0.0002431347 0 -1.794717e-05)
(0.01300127 0.001633587 0 0.0002355385 0 -1.476953e-05)
(0.01065323 0.001417286 0 0.0002275522 0 -1.214035e-05)
(0.008721387 0.001239518 0 0.0002263989 0 -1.000258e-05)
(0.007067206 0.001075676 0 0.0002128191 0 -8.11975e-06)
(0.005699581 0.0009369554 0 0.00023152 0 -6.550258e-06)
(0.004319219 0.0007292926 0 0.0001289639 0 -4.873926e-06)
(0.003801968 0.0006945205 0 0.0004268065 0 -4.596395e-06)
(0.001796994 0.0002765154 0 -0.0004696385 0 -1.667756e-06)
(0.004643312 0.0008085799 0 0.002138473 0 -7.598329e-06)
(-0.00331352 -0.0004182664 0 -0.00394699 0 6.125008e-06)
(0.007345703 0.000729848 0 0.005113945 0 -1.00691e-05)
(-0.001404102 -0.0002050291 0 -0.002129837 0 2.153086e-06)
)
;
    }
    wall
    {
        type            calculated;
        value           nonuniform List<symmTensor> 2((-9.262344 -0.1343067 0 0.007492227 0 0.006643186) (-8.873741 -0.107645 0 0.007504283 0 0.007218078));
    }
    frontAndBack
    {
        type            empty;
    }
    middle
    {
        type            symmetryPlane;
        value           nonuniform List<symmTensor> 2((-0.001404182 0 0 -0.002129983 0 2.070883e-06) (-0.001404022 0 0 -0.002129692 0 2.235289e-06));
    }
}


// ************************************************************************* //
