/*--------------------------------*- C++ -*----------------------------------*\
| =========                 |                                                 |
| \\      /  F ield         | foam-extend: Open Source CFD                    |
|  \\    /   O peration     | Version:     4.0                                |
|   \\  /    A nd           | Web:         http://www.foam-extend.org         |
|    \\/     M anipulation  |                                                 |
\*---------------------------------------------------------------------------*/
FoamFile
{
    version     2.0;
    format      ascii;
    class       volScalarField;
    location    "100";
    object      epsilonV;
}
// * * * * * * * * * * * * * * * * * * * * * * * * * * * * * * * * * * * * * //

dimensions      [0 2 -3 0 0 0 0];

internalField   nonuniform List<scalar> 
150
(
1.369872e-07
1.369836e-07
7.140837e-06
7.141011e-06
4.750126e-05
4.750205e-05
0.0001740403
0.0001740425
0.0004702511
0.0004702543
0.001053163
0.001053164
0.002073195
0.002073188
0.003709127
0.003709104
0.006156454
0.006156411
0.009608443
0.009608379
0.01423148
0.0142314
0.0201393
0.02013922
0.02737305
0.02737301
0.03589376
0.03589377
0.04558911
0.04558916
0.05628545
0.05628558
0.0675914
0.06759164
0.08441376
0.08441414
0.1047885
0.104789
0.125917
0.1259176
0.1473536
0.1473543
0.1685961
0.168597
0.1891835
0.1891843
0.2087099
0.2087107
0.2268292
0.22683
0.2432543
0.2432551
0.257756
0.2577568
0.2701597
0.2701606
0.2803425
0.2803432
0.2882292
0.2882299
0.2937896
0.2937902
0.2970342
0.2970347
0.2980115
0.298012
0.2968045
0.2968049
0.293528
0.2935283
0.288325
0.2883252
0.2813639
0.281364
0.2728343
0.2728344
0.2629426
0.2629426
0.2519071
0.251907
0.2399526
0.2399526
0.2273046
0.2273046
0.214183
0.2141828
0.2007965
0.2007963
0.1873376
0.1873376
0.1739784
0.1739783
0.160867
0.160867
0.1481265
0.1481265
0.1358543
0.1358543
0.1241229
0.1241229
0.1129823
0.1129823
0.1024621
0.1024621
0.09257506
0.09257509
0.08332008
0.08332009
0.07468553
0.07468556
0.06665227
0.06665228
0.05919627
0.0591963
0.05229097
0.052291
0.04590927
0.04590927
0.04002484
0.04002484
0.03461372
0.03461372
0.02965472
0.02965472
0.02513002
0.02513002
0.021025
0.02102501
0.01732789
0.01732789
0.01402823
0.01402824
0.01111767
0.01111768
0.008582712
0.008582722
0.006415006
0.006415015
0.004563463
0.004563464
0.003115996
0.003115984
0.001728517
0.0017285
0.001419556
0.001419554
-0.0003608485
-0.0003608436
0.0004525493
0.0004525484
)
;

boundaryField
{
    leftandright
    {
        type            cyclic;
        value           nonuniform List<scalar> 
150
(
1.369854e-07
7.140924e-06
4.750165e-05
0.0001740414
0.0004702527
0.001053164
0.002073191
0.003709116
0.006156432
0.009608411
0.01423144
0.02013926
0.02737303
0.03589376
0.04558914
0.05628551
0.06759152
0.08441395
0.1047887
0.1259173
0.147354
0.1685965
0.1891839
0.2087103
0.2268296
0.2432547
0.2577564
0.2701601
0.2803429
0.2882296
0.2937899
0.2970344
0.2980117
0.2968047
0.2935281
0.2883251
0.281364
0.2728344
0.2629426
0.2519071
0.2399526
0.2273046
0.2141829
0.2007964
0.1873376
0.1739784
0.160867
0.1481265
0.1358543
0.1241229
0.1129823
0.1024621
0.09257507
0.08332008
0.07468555
0.06665228
0.05919628
0.05229099
0.04590927
0.04002484
0.03461372
0.02965472
0.02513002
0.02102501
0.01732789
0.01402823
0.01111767
0.008582717
0.00641501
0.004563464
0.00311599
0.001728509
0.001419555
-0.000360846
0.0004525489
1.369854e-07
7.140924e-06
4.750165e-05
0.0001740414
0.0004702527
0.001053164
0.002073191
0.003709116
0.006156432
0.009608411
0.01423144
0.02013926
0.02737303
0.03589376
0.04558914
0.05628551
0.06759152
0.08441395
0.1047887
0.1259173
0.147354
0.1685965
0.1891839
0.2087103
0.2268296
0.2432547
0.2577564
0.2701601
0.2803429
0.2882296
0.2937899
0.2970344
0.2980117
0.2968047
0.2935281
0.2883251
0.281364
0.2728344
0.2629426
0.2519071
0.2399526
0.2273046
0.2141829
0.2007964
0.1873376
0.1739784
0.160867
0.1481265
0.1358543
0.1241229
0.1129823
0.1024621
0.09257507
0.08332008
0.07468555
0.06665228
0.05919628
0.05229099
0.04590927
0.04002484
0.03461372
0.02965472
0.02513002
0.02102501
0.01732789
0.01402823
0.01111767
0.008582717
0.00641501
0.004563464
0.00311599
0.001728509
0.001419555
-0.000360846
0.0004525489
)
;
    }
    wall
    {
        type            calculated;
        value           nonuniform List<scalar> 2(4.504431e-10 4.504316e-10);
    }
    frontAndBack
    {
        type            empty;
    }
    middle
    {
        type            symmetryPlane;
        value           nonuniform List<scalar> 2(0.0004525493 0.0004525484);
    }
}


// ************************************************************************* //
