/*--------------------------------*- C++ -*----------------------------------*\
| =========                 |                                                 |
| \\      /  F ield         | foam-extend: Open Source CFD                    |
|  \\    /   O peration     | Version:     4.0                                |
|   \\  /    A nd           | Web:         http://www.foam-extend.org         |
|    \\/     M anipulation  |                                                 |
\*---------------------------------------------------------------------------*/
FoamFile
{
    version     2.0;
    format      ascii;
    class       volScalarField;
    location    "100";
    object      f;
}
// * * * * * * * * * * * * * * * * * * * * * * * * * * * * * * * * * * * * * //

dimensions      [0 0 -1 0 0 0 0];

internalField   nonuniform List<scalar> 
150
(
0.01154592
0.01154593
0.03496643
0.03496643
0.0593138
0.0593138
0.08462535
0.08462535
0.1109386
0.1109386
0.1382907
0.1382907
0.1667181
0.1667181
0.1962555
0.1962555
0.2269353
0.2269353
0.2587858
0.2587858
0.2918303
0.2918303
0.3260845
0.3260845
0.3615552
0.3615552
0.3982367
0.3982367
0.4361079
0.4361079
0.4751283
0.4751283
0.5152335
0.5152335
0.5563303
0.5563303
0.5983611
0.5983611
0.6412768
0.6412768
0.6850089
0.6850089
0.7294714
0.7294714
0.7745634
0.7745634
0.8201706
0.8201706
0.8661679
0.8661679
0.912421
0.912421
0.958789
0.958789
1.005126
1.005126
1.051282
1.051282
1.097106
1.097106
1.142448
1.142448
1.187157
1.187157
1.231086
1.231086
1.274091
1.274091
1.31603
1.31603
1.356769
1.356769
1.396175
1.396175
1.434123
1.434123
1.470493
1.470493
1.505171
1.505171
1.53805
1.53805
1.569028
1.569028
1.598011
1.598011
1.624913
1.624913
1.649654
1.649654
1.672162
1.672162
1.692375
1.692375
1.710237
1.710237
1.725701
1.725701
1.738733
1.738733
1.749304
1.749304
1.757398
1.757398
1.763007
1.763007
1.766137
1.766137
1.766807
1.766807
1.76507
1.76507
1.760984
1.760984
1.754617
1.754617
1.746044
1.746044
1.735354
1.735354
1.722651
1.722651
1.70806
1.70806
1.691727
1.691727
1.673831
1.673831
1.654587
1.654587
1.634259
1.634259
1.613165
1.613165
1.591696
1.591696
1.570328
1.570328
1.549644
1.549644
1.530331
1.530331
1.51316
1.51316
1.498959
1.498959
1.488594
1.488594
1.482955
1.482955
)
;

boundaryField
{
    leftandright
    {
        type            cyclic;
        value           nonuniform List<scalar> 
150
(
0.01154592
0.03496643
0.0593138
0.08462535
0.1109386
0.1382907
0.1667181
0.1962555
0.2269353
0.2587858
0.2918303
0.3260845
0.3615552
0.3982367
0.4361079
0.4751283
0.5152335
0.5563303
0.5983611
0.6412768
0.6850089
0.7294714
0.7745634
0.8201706
0.8661679
0.912421
0.958789
1.005126
1.051282
1.097106
1.142448
1.187157
1.231086
1.274091
1.31603
1.356769
1.396175
1.434123
1.470493
1.505171
1.53805
1.569028
1.598011
1.624913
1.649654
1.672162
1.692375
1.710237
1.725701
1.738733
1.749304
1.757398
1.763007
1.766137
1.766807
1.76507
1.760984
1.754617
1.746044
1.735354
1.722651
1.70806
1.691727
1.673831
1.654587
1.634259
1.613165
1.591696
1.570328
1.549644
1.530331
1.51316
1.498959
1.488594
1.482955
0.01154592
0.03496643
0.0593138
0.08462535
0.1109386
0.1382907
0.1667181
0.1962555
0.2269353
0.2587858
0.2918303
0.3260845
0.3615552
0.3982367
0.4361079
0.4751283
0.5152335
0.5563303
0.5983611
0.6412768
0.6850089
0.7294714
0.7745634
0.8201706
0.8661679
0.912421
0.958789
1.005126
1.051282
1.097106
1.142448
1.187157
1.231086
1.274091
1.31603
1.356769
1.396175
1.434123
1.470493
1.505171
1.53805
1.569028
1.598011
1.624913
1.649654
1.672162
1.692375
1.710237
1.725701
1.738733
1.749304
1.757398
1.763007
1.766137
1.766807
1.76507
1.760984
1.754617
1.746044
1.735354
1.722651
1.70806
1.691727
1.673831
1.654587
1.634259
1.613165
1.591696
1.570328
1.549644
1.530331
1.51316
1.498959
1.488594
1.482955
)
;
    }
    wall
    {
        type            fixedValue;
        value           uniform 1e-10;
    }
    frontAndBack
    {
        type            empty;
    }
    middle
    {
        type            symmetryPlane;
        value           nonuniform List<scalar> 2(1.482955 1.482955);
    }
}


// ************************************************************************* //
