/*--------------------------------*- C++ -*----------------------------------*\
| =========                 |                                                 |
| \\      /  F ield         | foam-extend: Open Source CFD                    |
|  \\    /   O peration     | Version:     4.0                                |
|   \\  /    A nd           | Web:         http://www.foam-extend.org         |
|    \\/     M anipulation  |                                                 |
\*---------------------------------------------------------------------------*/
FoamFile
{
    version     2.0;
    format      ascii;
    class       volScalarField;
    location    "100";
    object      fp;
}
// * * * * * * * * * * * * * * * * * * * * * * * * * * * * * * * * * * * * * //

dimensions      [0 0 0 0 0 0 0];

internalField   nonuniform List<scalar> 
150
(
1.590013
1.590034
1.589598
1.589637
1.588889
1.588901
1.587875
1.587878
1.586571
1.586573
1.584938
1.58494
1.582894
1.582896
1.580325
1.580327
1.577099
1.577101
1.573081
1.573084
1.568153
1.568155
1.562228
1.562231
1.555267
1.555269
1.547267
1.547269
1.538224
1.538226
1.527989
1.527991
1.515878
1.51588
1.501008
1.501009
1.483323
1.483324
1.463646
1.463647
1.442722
1.442723
1.420983
1.420983
1.398731
1.398731
1.376218
1.376218
1.353665
1.353666
1.331274
1.331275
1.30922
1.309221
1.287656
1.287657
1.266713
1.266713
1.246494
1.246495
1.227086
1.227087
1.208554
1.208555
1.190945
1.190945
1.174289
1.174289
1.158605
1.158606
1.1439
1.1439
1.13017
1.13017
1.117402
1.117402
1.105579
1.105579
1.094676
1.094676
1.084663
1.084663
1.075505
1.075505
1.067164
1.067164
1.059598
1.059598
1.052761
1.052761
1.046607
1.046607
1.041087
1.041087
1.036152
1.036152
1.031752
1.031752
1.027838
1.027838
1.024363
1.024363
1.021283
1.021283
1.018556
1.018556
1.016142
1.016142
1.014007
1.014007
1.012117
1.012117
1.010445
1.010445
1.008965
1.008965
1.007655
1.007655
1.006495
1.006495
1.00547
1.00547
1.004566
1.004566
1.003772
1.003772
1.003077
1.003077
1.002473
1.002473
1.001953
1.001953
1.001511
1.001511
1.00114
1.00114
1.000834
1.000835
1.000583
1.000583
1.000391
1.000391
1.000215
1.000215
1.000172
1.000172
1
1
1.000054
1.000054
)
;

boundaryField
{
    leftandright
    {
        type            cyclic;
        value           nonuniform List<scalar> 
150
(
1.590023
1.589617
1.588895
1.587877
1.586572
1.584939
1.582895
1.580326
1.5771
1.573082
1.568154
1.562229
1.555268
1.547268
1.538225
1.52799
1.515879
1.501008
1.483324
1.463646
1.442722
1.420983
1.398731
1.376218
1.353666
1.331274
1.30922
1.287657
1.266713
1.246494
1.227087
1.208554
1.190945
1.174289
1.158606
1.1439
1.13017
1.117402
1.105579
1.094676
1.084663
1.075505
1.067164
1.059598
1.052761
1.046607
1.041087
1.036152
1.031752
1.027838
1.024363
1.021283
1.018556
1.016142
1.014007
1.012117
1.010445
1.008965
1.007655
1.006495
1.00547
1.004566
1.003772
1.003077
1.002473
1.001953
1.001511
1.00114
1.000835
1.000583
1.000391
1.000215
1.000172
1
1.000054
1.590023
1.589617
1.588895
1.587877
1.586572
1.584939
1.582895
1.580326
1.5771
1.573082
1.568154
1.562229
1.555268
1.547268
1.538225
1.52799
1.515879
1.501008
1.483324
1.463646
1.442722
1.420983
1.398731
1.376218
1.353666
1.331274
1.30922
1.287657
1.266713
1.246494
1.227087
1.208554
1.190945
1.174289
1.158606
1.1439
1.13017
1.117402
1.105579
1.094676
1.084663
1.075505
1.067164
1.059598
1.052761
1.046607
1.041087
1.036152
1.031752
1.027838
1.024363
1.021283
1.018556
1.016142
1.014007
1.012117
1.010445
1.008965
1.007655
1.006495
1.00547
1.004566
1.003772
1.003077
1.002473
1.001953
1.001511
1.00114
1.000835
1.000583
1.000391
1.000215
1.000172
1
1.000054
)
;
    }
    wall
    {
        type            calculated;
        value           nonuniform List<scalar> 2(1.590013 1.590034);
    }
    frontAndBack
    {
        type            empty;
    }
    middle
    {
        type            symmetryPlane;
        value           nonuniform List<scalar> 2(1.000054 1.000054);
    }
}


// ************************************************************************* //
