/*--------------------------------*- C++ -*----------------------------------*\
| =========                 |                                                 |
| \\      /  F ield         | foam-extend: Open Source CFD                    |
|  \\    /   O peration     | Version:     4.0                                |
|   \\  /    A nd           | Web:         http://www.foam-extend.org         |
|    \\/     M anipulation  |                                                 |
\*---------------------------------------------------------------------------*/
FoamFile
{
    version     2.0;
    format      ascii;
    class       volScalarField;
    location    "100";
    object      k;
}
// * * * * * * * * * * * * * * * * * * * * * * * * * * * * * * * * * * * * * //

dimensions      [0 2 -2 0 0 0 0];

internalField   nonuniform List<scalar> 
150
(
0.001188969
0.001188969
0.01306282
0.01306283
0.03531988
0.03531988
0.06884387
0.06884388
0.1145736
0.1145736
0.1734979
0.1734979
0.2466424
0.2466424
0.3350445
0.3350445
0.439715
0.439715
0.5615859
0.5615859
0.7014471
0.7014472
0.8598794
0.8598794
1.037194
1.037194
1.233389
1.233389
1.44814
1.44814
1.680812
1.680812
1.930512
1.930512
2.195187
2.195187
2.470197
2.470197
2.750354
2.750354
3.0307
3.0307
3.306284
3.306284
3.572406
3.572407
3.82482
3.82482
4.059884
4.059885
4.274665
4.274665
4.46698
4.46698
4.635398
4.635399
4.779193
4.779193
4.898268
4.898268
4.993064
4.993064
5.064451
5.064452
5.113632
5.113632
5.142034
5.142034
5.151229
5.15123
5.142856
5.142856
5.118557
5.118557
5.079936
5.079936
5.028524
5.028524
4.965749
4.965749
4.892932
4.892932
4.811271
4.811271
4.721847
4.721847
4.625623
4.625623
4.523451
4.523451
4.416082
4.416082
4.304171
4.304171
4.188293
4.188293
4.06895
4.06895
3.94658
3.94658
3.821572
3.821572
3.694277
3.694277
3.565016
3.565016
3.434096
3.434096
3.301819
3.301819
3.168501
3.168501
3.034482
3.034482
2.90014
2.90014
2.765912
2.765912
2.632305
2.632305
2.499908
2.499908
2.369407
2.369407
2.241585
2.241585
2.117321
2.117321
1.997577
1.997577
1.883372
1.883372
1.775748
1.775748
1.675726
1.675726
1.584265
1.584265
1.502288
1.502288
1.430777
1.430777
1.370809
1.370809
1.323548
1.323548
1.290305
1.290305
1.272619
1.272619
)
;

boundaryField
{
    leftandright
    {
        type            cyclic;
        value           nonuniform List<scalar> 
150
(
0.001188969
0.01306282
0.03531988
0.06884388
0.1145736
0.1734979
0.2466424
0.3350445
0.439715
0.5615859
0.7014472
0.8598794
1.037194
1.233389
1.44814
1.680812
1.930512
2.195187
2.470197
2.750354
3.0307
3.306284
3.572407
3.82482
4.059884
4.274665
4.46698
4.635398
4.779193
4.898268
4.993064
5.064452
5.113632
5.142034
5.15123
5.142856
5.118557
5.079936
5.028524
4.965749
4.892932
4.811271
4.721847
4.625623
4.523451
4.416082
4.304171
4.188293
4.06895
3.94658
3.821572
3.694277
3.565016
3.434096
3.301819
3.168501
3.034482
2.90014
2.765912
2.632305
2.499908
2.369407
2.241585
2.117321
1.997577
1.883372
1.775748
1.675726
1.584265
1.502288
1.430777
1.370809
1.323548
1.290305
1.272619
0.001188969
0.01306282
0.03531988
0.06884388
0.1145736
0.1734979
0.2466424
0.3350445
0.439715
0.5615859
0.7014472
0.8598794
1.037194
1.233389
1.44814
1.680812
1.930512
2.195187
2.470197
2.750354
3.0307
3.306284
3.572407
3.82482
4.059884
4.274665
4.46698
4.635398
4.779193
4.898268
4.993064
5.064452
5.113632
5.142034
5.15123
5.142856
5.118557
5.079936
5.028524
4.965749
4.892932
4.811271
4.721847
4.625623
4.523451
4.416082
4.304171
4.188293
4.06895
3.94658
3.821572
3.694277
3.565016
3.434096
3.301819
3.168501
3.034482
2.90014
2.765912
2.632305
2.499908
2.369407
2.241585
2.117321
1.997577
1.883372
1.775748
1.675726
1.584265
1.502288
1.430777
1.370809
1.323548
1.290305
1.272619
)
;
    }
    wall
    {
        type            fixedValue;
        value           uniform 1e-10;
    }
    frontAndBack
    {
        type            empty;
    }
    middle
    {
        type            symmetryPlane;
        value           nonuniform List<scalar> 2(1.272619 1.272619);
    }
}


// ************************************************************************* //
