/*--------------------------------*- C++ -*----------------------------------*\
| =========                 |                                                 |
| \\      /  F ield         | foam-extend: Open Source CFD                    |
|  \\    /   O peration     | Version:     4.0                                |
|   \\  /    A nd           | Web:         http://www.foam-extend.org         |
|    \\/     M anipulation  |                                                 |
\*---------------------------------------------------------------------------*/
FoamFile
{
    version     2.0;
    format      ascii;
    class       volSymmTensorField;
    location    "100";
    object      N;
}
// * * * * * * * * * * * * * * * * * * * * * * * * * * * * * * * * * * * * * //

dimensions      [0 2 -2 0 0 0 0];

internalField   nonuniform List<symmTensor> 
150
(
(0.002298431 0 0 4.938143e-08 0 7.945839e-05)
(0.002298432 0 0 4.938144e-08 0 7.945761e-05)
(0.02525 0 0 2.49732e-06 0 0.0008731531)
(0.02525002 0 0 2.497321e-06 0 0.0008731374)
(0.06826197 0 0 1.612493e-05 0 0.002361655)
(0.06826199 0 0 1.612493e-05 0 0.002361643)
(0.1330249 0 0 5.739924e-05 0 0.004605416)
(0.1330249 0 0 5.739925e-05 0 0.00460541)
(0.221327 0 0 0.0001508938 0 0.007669261)
(0.2213271 0 0 0.0001508938 0 0.007669253)
(0.3350439 0 0 0.0003295014 0 0.0116224)
(0.335044 0 0 0.0003295014 0 0.01162238)
(0.4761123 4.010469e-19 0 0.0006343768 0 0.0165381)
(0.4761124 -4.010464e-19 0 0.0006343769 0 0.01653808)
(0.6461144 0 0 0.001114564 0 0.02285993)
(0.6461145 0 0 0.001114564 0 0.02285993)
(0.8442146 0 0 0.001826273 0 0.03338906)
(0.8442146 -1.440797e-18 0 0.001826273 0 0.03338906)
(1.073534 0 0 0.002831799 0 0.0468057)
(1.073534 0 0 0.0028318 0 0.04680571)
(1.335241 0 0 0.004198125 0 0.06345542)
(1.335241 0 0 0.004198126 0 0.06345543)
(1.630105 -6.105578e-18 0 0.005995309 0 0.08365895)
(1.630105 6.105579e-18 0 0.00599531 0 0.08365896)
(1.95839 0 0 0.008294819 0 0.1077021)
(1.958391 0 0 0.008294821 0 0.1077021)
(2.319783 8.870225e-18 0 0.01116803 0 0.1358273)
(2.319783 -8.870226e-18 0 0.01116803 0 0.1358273)
(2.713366 0 0 0.01468505 0 0.1682289)
(2.713366 0 0 0.01468505 0 0.1682289)
(3.137657 -1.198799e-17 0 0.01891407 0 0.2050521)
(3.137657 0 0 0.01891407 0 0.2050521)
(3.590706 0 0 0.02392131 0 0.246397)
(3.590706 0 0 0.02392131 0 0.246397)
(4.068474 3.059219e-17 0 0.02974845 0 0.2921511)
(4.068474 0 0 0.02974845 0 0.2921512)
(4.56213 0 0 0.03640454 0 0.341859)
(4.56213 0 0 0.03640455 0 0.3418591)
(5.061813 -7.409779e-17 0 0.04389695 0 0.3949978)
(5.061813 3.70489e-17 0 0.04389696 0 0.3949978)
(5.558138 0 0 0.0522322 0 0.4510294)
(5.558138 0 0 0.05223221 0 0.4510294)
(6.041819 8.556403e-17 0 0.06140596 0 0.5093428)
(6.041819 0 0 0.06140597 0 0.5093429)
(6.504132 9.047848e-17 0 0.07140295 0 0.5692779)
(6.504132 0 0 0.07140296 0 0.569278)
(6.937293 0 0 0.08219715 0 0.6301502)
(6.937293 0 0 0.08219716 0 0.6301502)
(7.334742 -9.828341e-17 0 0.09375236 0 0.6912747)
(7.334742 0 0 0.09375238 0 0.6912748)
(7.691318 -1.010848e-16 0 0.1060231 0 0.7519888)
(7.691318 0 0 0.1060231 0 0.7519888)
(8.003334 -2.062583e-16 0 0.1189557 0 0.8116703)
(8.003334 0 0 0.1189557 0 0.8116704)
(8.268554 0 0 0.1324895 0 0.8697532)
(8.268554 0 0 0.1324895 0 0.8697532)
(8.486091 0 0 0.1465583 0 0.925737)
(8.486091 0 0 0.1465583 0 0.9257371)
(8.656251 0 0 0.1610915 0 0.9791933)
(8.656252 0 0 0.1610916 0 0.9791934)
(8.780345 2.082528e-16 0 0.1760155 0 1.029767)
(8.780345 -2.082528e-16 0 0.1760155 0 1.029767)
(8.860474 2.055914e-16 0 0.1912541 0 1.077175)
(8.860474 0 0 0.1912542 0 1.077175)
(8.899332 -6.056917e-16 0 0.2067304 0 1.121202)
(8.899332 0 0 0.2067304 0 1.121202)
(8.900011 0 0 0.2223664 0 1.161691)
(8.900011 0 0 0.2223664 0 1.161691)
(8.865831 3.838578e-16 0 0.2380844 0 1.198544)
(8.865831 0 0 0.2380844 0 1.198544)
(8.800201 0 0 0.2538069 0 1.231703)
(8.800201 0 0 0.253807 0 1.231703)
(8.706502 7.174656e-16 0 0.2694575 0 1.261153)
(8.706503 -3.587328e-16 0 0.2694575 0 1.261153)
(8.588004 0 0 0.2849604 0 1.286908)
(8.588005 0 0 0.2849604 0 1.286908)
(8.447801 0 0 0.3002412 0 1.309005)
(8.447801 0 0 0.3002412 0 1.309005)
(8.28877 0 0 0.3152268 0 1.327502)
(8.28877 0 0 0.3152268 0 1.327502)
(8.11355 0 0 0.3298457 0 1.342467)
(8.113551 0 0 0.3298457 0 1.342467)
(7.924533 0 0 0.3440279 0 1.353981)
(7.924533 0 0 0.3440279 0 1.353981)
(7.723861 0 0 0.3577053 0 1.362128)
(7.723861 0 0 0.3577054 0 1.362128)
(7.513436 -1.016826e-15 0 0.370812 0 1.366997)
(7.513436 0 0 0.370812 0 1.366997)
(7.294939 -4.784509e-16 0 0.383284 0 1.368679)
(7.294939 0 0 0.383284 0 1.368679)
(7.069837 0 0 0.3950605 0 1.367265)
(7.069838 0 0 0.3950605 0 1.367265)
(6.839413 0 0 0.4060834 0 1.362846)
(6.839413 0 0 0.4060834 0 1.362846)
(6.604777 0 0 0.4162983 0 1.355511)
(6.604778 0 0 0.4162983 0 1.355511)
(6.366892 7.316509e-16 0 0.425655 0 1.345352)
(6.366892 0 0 0.425655 0 1.345352)
(6.126591 6.799174e-16 0 0.4341082 0 1.33246)
(6.126591 -6.799174e-16 0 0.4341082 0 1.33246)
(5.884598 0 0 0.4416183 0 1.316928)
(5.884598 0 0 0.4416183 0 1.316928)
(5.641549 0 0 0.4481525 0 1.298853)
(5.641549 0 0 0.4481525 0 1.298853)
(5.398013 0 0 0.4536857 0 1.278334)
(5.398013 0 0 0.4536857 0 1.278334)
(5.154508 0 0 0.4582016 0 1.255482)
(5.154508 0 0 0.4582016 0 1.255481)
(4.911531 0 0 0.4616942 0 1.230414)
(4.911531 0 0 0.4616942 0 1.230414)
(4.669571 -8.295499e-16 0 0.464169 0 1.203263)
(4.669571 8.295499e-16 0 0.464169 0 1.203263)
(4.429142 0 0 0.4656433 0 1.174177)
(4.429142 0 0 0.4656433 0 1.174177)
(4.190808 0 0 0.4661471 0 1.143325)
(4.190808 0 0 0.466147 0 1.143325)
(3.955205 -6.235497e-16 0 0.4657228 0 1.110897)
(3.955205 6.235497e-16 0 0.4657228 0 1.110897)
(3.723074 0 0 0.4644251 0 1.07711)
(3.723074 0 0 0.4644251 0 1.07711)
(3.495284 0 0 0.4623185 0 1.042213)
(3.495284 0 0 0.4623185 0 1.042213)
(3.272857 0 0 0.459474 0 1.006483)
(3.272857 0 0 0.459474 0 1.006483)
(3.056978 -1.628709e-15 0 0.4559634 0 0.9702282)
(3.056978 0 0 0.4559634 0 0.9702282)
(2.849008 0 0 0.4518499 0 0.9337836)
(2.849008 -7.260464e-16 0 0.4518499 0 0.9337836)
(2.650475 0 0 0.4471765 0 0.8975028)
(2.650475 0 0 0.4471764 0 0.8975028)
(2.463049 0 0 0.4419492 0 0.8617466)
(2.463049 0 0 0.4419492 0 0.8617466)
(2.288516 0 0 0.4361168 0 0.8268644)
(2.288516 -1.013806e-15 0 0.4361168 0 0.8268643)
(2.128736 0 0 0.4295452 0 0.7931711)
(2.128736 0 0 0.4295452 0 0.7931711)
(1.985629 0 0 0.4219848 0 0.7609165)
(1.985629 0 0 0.4219848 0 0.7609165)
(1.860377 0 0 0.4135725 0 0.7306269)
(1.860377 0 0 0.4135725 0 0.7306269)
(1.753237 0 0 0.4050707 0 0.7032476)
(1.753237 0 0 0.4050707 0 0.7032476)
(1.664795 0 0 0.3971634 0 0.6796599)
(1.664795 0 0 0.3971633 0 0.6796599)
(1.59594 0 0 0.3904609 0 0.6606956)
(1.59594 0 0 0.3904609 0 0.6606956)
(1.547932 0 0 0.3855093 0 0.6471692)
(1.547932 0 0 0.3855093 0 0.6471692)
(1.522534 -8.9541e-16 0 0.3827936 0 0.6399094)
(1.522534 0 0 0.3827936 0 0.6399094)
)
;

boundaryField
{
    leftandright
    {
        type            cyclic;
        value           nonuniform List<symmTensor> 
150
(
(0.002298431 0 0 4.938144e-08 0 7.9458e-05)
(0.02525001 0 0 2.497321e-06 0 0.0008731452)
(0.06826198 0 0 1.612493e-05 0 0.002361649)
(0.1330249 0 0 5.739924e-05 0 0.004605413)
(0.221327 0 0 0.0001508938 0 0.007669257)
(0.335044 0 0 0.0003295014 0 0.01162239)
(0.4761123 -2.205319e-34 0 0.0006343768 0 0.01653809)
(0.6461144 0 0 0.001114564 0 0.02285993)
(0.8442146 -7.203985e-19 0 0.001826273 0 0.03338906)
(1.073534 0 0 0.002831799 0 0.0468057)
(1.335241 0 0 0.004198125 0 0.06345543)
(1.630105 -4.786392e-34 0 0.005995309 0 0.08365896)
(1.95839 0 0 0.00829482 0 0.1077021)
(2.319783 2.304816e-33 0 0.01116803 0 0.1358273)
(2.713366 0 0 0.01468505 0 0.1682289)
(3.137657 -5.993994e-18 0 0.01891407 0 0.2050521)
(3.590706 0 0 0.02392131 0 0.246397)
(4.068474 1.52961e-17 0 0.02974845 0 0.2921511)
(4.56213 0 0 0.03640454 0 0.3418591)
(5.061813 -1.852445e-17 0 0.04389695 0 0.3949978)
(5.558138 0 0 0.0522322 0 0.4510294)
(6.041819 4.278202e-17 0 0.06140596 0 0.5093428)
(6.504132 4.523924e-17 0 0.07140295 0 0.569278)
(6.937293 0 0 0.08219715 0 0.6301502)
(7.334742 -4.914171e-17 0 0.09375237 0 0.6912748)
(7.691318 -5.054242e-17 0 0.1060231 0 0.7519888)
(8.003334 -1.031292e-16 0 0.1189557 0 0.8116704)
(8.268554 0 0 0.1324895 0 0.8697532)
(8.486091 0 0 0.1465583 0 0.925737)
(8.656252 0 0 0.1610915 0 0.9791934)
(8.780345 0 0 0.1760155 0 1.029767)
(8.860474 1.027957e-16 0 0.1912542 0 1.077175)
(8.899332 -3.028459e-16 0 0.2067304 0 1.121202)
(8.900011 0 0 0.2223664 0 1.161691)
(8.865831 1.919289e-16 0 0.2380844 0 1.198544)
(8.800201 0 0 0.253807 0 1.231703)
(8.706502 1.793664e-16 0 0.2694575 0 1.261153)
(8.588004 0 0 0.2849604 0 1.286908)
(8.447801 0 0 0.3002412 0 1.309005)
(8.28877 0 0 0.3152268 0 1.327502)
(8.113551 0 0 0.3298457 0 1.342467)
(7.924533 0 0 0.3440279 0 1.353981)
(7.723861 0 0 0.3577054 0 1.362128)
(7.513436 -5.084128e-16 0 0.370812 0 1.366997)
(7.294939 -2.392255e-16 0 0.383284 0 1.368679)
(7.069837 0 0 0.3950605 0 1.367265)
(6.839413 0 0 0.4060834 0 1.362846)
(6.604777 0 0 0.4162983 0 1.355511)
(6.366892 3.658254e-16 0 0.425655 0 1.345352)
(6.126591 7.529671e-31 0 0.4341082 0 1.33246)
(5.884598 0 0 0.4416183 0 1.316928)
(5.641549 0 0 0.4481525 0 1.298853)
(5.398013 0 0 0.4536857 0 1.278334)
(5.154508 0 0 0.4582016 0 1.255482)
(4.911531 0 0 0.4616942 0 1.230414)
(4.669571 -7.28803e-32 0 0.464169 0 1.203263)
(4.429142 0 0 0.4656433 0 1.174177)
(4.190808 0 0 0.4661471 0 1.143325)
(3.955205 -1.272381e-31 0 0.4657228 0 1.110897)
(3.723074 0 0 0.4644251 0 1.07711)
(3.495284 0 0 0.4623185 0 1.042213)
(3.272857 0 0 0.459474 0 1.006483)
(3.056978 -8.143543e-16 0 0.4559634 0 0.9702282)
(2.849008 -3.630232e-16 0 0.4518499 0 0.9337836)
(2.650475 0 0 0.4471765 0 0.8975028)
(2.463049 0 0 0.4419492 0 0.8617466)
(2.288516 -5.069032e-16 0 0.4361168 0 0.8268643)
(2.128736 0 0 0.4295452 0 0.7931711)
(1.985629 0 0 0.4219848 0 0.7609165)
(1.860377 0 0 0.4135725 0 0.7306269)
(1.753237 0 0 0.4050707 0 0.7032476)
(1.664795 0 0 0.3971634 0 0.6796599)
(1.59594 0 0 0.3904609 0 0.6606956)
(1.547932 0 0 0.3855093 0 0.6471692)
(1.522534 -4.47705e-16 0 0.3827936 0 0.6399094)
(0.002298431 0 0 4.938144e-08 0 7.9458e-05)
(0.02525001 0 0 2.497321e-06 0 0.0008731452)
(0.06826198 0 0 1.612493e-05 0 0.002361649)
(0.1330249 0 0 5.739924e-05 0 0.004605413)
(0.221327 0 0 0.0001508938 0 0.007669257)
(0.335044 0 0 0.0003295014 0 0.01162239)
(0.4761123 -2.450355e-34 0 0.0006343768 0 0.01653809)
(0.6461144 0 0 0.001114564 0 0.02285993)
(0.8442146 -7.203985e-19 0 0.001826273 0 0.03338906)
(1.073534 0 0 0.002831799 0 0.0468057)
(1.335241 0 0 0.004198125 0 0.06345543)
(1.630105 -4.786392e-34 0 0.005995309 0 0.08365896)
(1.95839 0 0 0.00829482 0 0.1077021)
(2.319783 2.304816e-33 0 0.01116803 0 0.1358273)
(2.713366 0 0 0.01468505 0 0.1682289)
(3.137657 -5.993994e-18 0 0.01891407 0 0.2050521)
(3.590706 0 0 0.02392131 0 0.246397)
(4.068474 1.52961e-17 0 0.02974845 0 0.2921511)
(4.56213 0 0 0.03640454 0 0.3418591)
(5.061813 -1.852445e-17 0 0.04389695 0 0.3949978)
(5.558138 0 0 0.0522322 0 0.4510294)
(6.041819 4.278202e-17 0 0.06140596 0 0.5093428)
(6.504132 4.523924e-17 0 0.07140295 0 0.569278)
(6.937293 0 0 0.08219715 0 0.6301502)
(7.334742 -4.914171e-17 0 0.09375237 0 0.6912748)
(7.691318 -5.054242e-17 0 0.1060231 0 0.7519888)
(8.003334 -1.031292e-16 0 0.1189557 0 0.8116704)
(8.268554 0 0 0.1324895 0 0.8697532)
(8.486091 0 0 0.1465583 0 0.925737)
(8.656252 0 0 0.1610915 0 0.9791934)
(8.780345 0 0 0.1760155 0 1.029767)
(8.860474 1.027957e-16 0 0.1912542 0 1.077175)
(8.899332 -3.028459e-16 0 0.2067304 0 1.121202)
(8.900011 0 0 0.2223664 0 1.161691)
(8.865831 1.919289e-16 0 0.2380844 0 1.198544)
(8.800201 0 0 0.253807 0 1.231703)
(8.706502 1.793664e-16 0 0.2694575 0 1.261153)
(8.588004 0 0 0.2849604 0 1.286908)
(8.447801 0 0 0.3002412 0 1.309005)
(8.28877 0 0 0.3152268 0 1.327502)
(8.113551 0 0 0.3298457 0 1.342467)
(7.924533 0 0 0.3440279 0 1.353981)
(7.723861 0 0 0.3577054 0 1.362128)
(7.513436 -5.084128e-16 0 0.370812 0 1.366997)
(7.294939 -2.392255e-16 0 0.383284 0 1.368679)
(7.069837 0 0 0.3950605 0 1.367265)
(6.839413 0 0 0.4060834 0 1.362846)
(6.604777 0 0 0.4162983 0 1.355511)
(6.366892 3.658254e-16 0 0.425655 0 1.345352)
(6.126591 7.529671e-31 0 0.4341082 0 1.33246)
(5.884598 0 0 0.4416183 0 1.316928)
(5.641549 0 0 0.4481525 0 1.298853)
(5.398013 0 0 0.4536857 0 1.278334)
(5.154508 0 0 0.4582016 0 1.255482)
(4.911531 0 0 0.4616942 0 1.230414)
(4.669571 -7.28803e-32 0 0.464169 0 1.203263)
(4.429142 0 0 0.4656433 0 1.174177)
(4.190808 0 0 0.4661471 0 1.143325)
(3.955205 -1.272381e-31 0 0.4657228 0 1.110897)
(3.723074 0 0 0.4644251 0 1.07711)
(3.495284 0 0 0.4623185 0 1.042213)
(3.272857 0 0 0.459474 0 1.006483)
(3.056978 -8.143543e-16 0 0.4559634 0 0.9702282)
(2.849008 -3.630232e-16 0 0.4518499 0 0.9337836)
(2.650475 0 0 0.4471765 0 0.8975028)
(2.463049 0 0 0.4419492 0 0.8617466)
(2.288516 -5.069032e-16 0 0.4361168 0 0.8268643)
(2.128736 0 0 0.4295452 0 0.7931711)
(1.985629 0 0 0.4219848 0 0.7609165)
(1.860377 0 0 0.4135725 0 0.7306269)
(1.753237 0 0 0.4050707 0 0.7032476)
(1.664795 0 0 0.3971634 0 0.6796599)
(1.59594 0 0 0.3904609 0 0.6606956)
(1.547932 0 0 0.3855093 0 0.6471692)
(1.522534 -4.47705e-16 0 0.3827936 0 0.6399094)
)
;
    }
    wall
    {
        type            calculated;
        value           uniform (3.333333e-11 0 0 1e-10 0 6.666667e-11);
    }
    frontAndBack
    {
        type            empty;
    }
    middle
    {
        type            symmetryPlane;
        value           nonuniform List<symmTensor> 2((1.522534 0 0 0.6399094 0 0.6399094) (1.522534 0 0 0.6399094 0 0.6399094));
    }
}


// ************************************************************************* //
