/*--------------------------------*- C++ -*----------------------------------*\
| =========                 |                                                 |
| \\      /  F ield         | foam-extend: Open Source CFD                    |
|  \\    /   O peration     | Version:     4.0                                |
|   \\  /    A nd           | Web:         http://www.foam-extend.org         |
|    \\/     M anipulation  |                                                 |
\*---------------------------------------------------------------------------*/
FoamFile
{
    version     2.0;
    format      ascii;
    class       volScalarField;
    location    "100";
    object      nut;
}
// * * * * * * * * * * * * * * * * * * * * * * * * * * * * * * * * * * * * * //

dimensions      [0 2 -1 0 0 0 0];

internalField   nonuniform List<scalar> 
150
(
8.920668e-10
8.920669e-10
4.658192e-08
4.658193e-08
3.104855e-07
3.104855e-07
1.140226e-06
1.140226e-06
3.089247e-06
3.089247e-06
6.941683e-06
6.941684e-06
1.372289e-05
1.372289e-05
2.468642e-05
2.468642e-05
4.126817e-05
4.126817e-05
6.500213e-05
6.500214e-05
9.740104e-05
9.740105e-05
0.0001398186
0.0001398187
0.0001933227
0.0001933227
0.0002586121
0.0002586122
0.000336002
0.000336002
0.0004254778
0.0004254779
0.0005267988
0.0005267989
0.0006850982
0.0006850983
0.0008949127
0.0008949128
0.001139879
0.001139879
0.001421925
0.001421925
0.001743269
0.00174327
0.002106424
0.002106424
0.002514163
0.002514164
0.00296948
0.002969481
0.003475535
0.003475536
0.004035607
0.004035608
0.004653043
0.004653043
0.005331206
0.005331207
0.00607343
0.006073431
0.006882962
0.006882963
0.007762918
0.007762919
0.008716231
0.008716231
0.009745598
0.009745599
0.01085344
0.01085344
0.01204186
0.01204186
0.01331258
0.01331258
0.01466695
0.01466695
0.01610586
0.01610587
0.01762978
0.01762978
0.01923867
0.01923867
0.02093201
0.02093201
0.02270882
0.02270882
0.0245676
0.0245676
0.02650642
0.02650642
0.0285229
0.0285229
0.03061433
0.03061433
0.03277771
0.03277771
0.03500988
0.03500988
0.03730768
0.03730768
0.03966813
0.03966812
0.04208871
0.04208871
0.04456766
0.04456766
0.04710437
0.04710437
0.04969982
0.04969981
0.0523571
0.0523571
0.05508196
0.05508196
0.05788333
0.05788333
0.06077386
0.06077386
0.0637703
0.0637703
0.06689358
0.06689358
0.07016833
0.07016833
0.07362143
0.07362143
0.07727908
0.07727908
0.08116153
0.08116153
0.08527462
0.08527462
0.08959677
0.08959677
0.09406012
0.09406012
0.09852422
0.09852421
0.1028719
0.1028719
0.1070734
0.1070734
0.1110145
0.1110145
0.1144805
0.1144805
0.1171584
0.1171584
0.1186754
0.1186754
)
;

boundaryField
{
    leftandright
    {
        type            cyclic;
        value           nonuniform List<scalar> 
150
(
8.920668e-10
4.658193e-08
3.104855e-07
1.140226e-06
3.089247e-06
6.941683e-06
1.372289e-05
2.468642e-05
4.126817e-05
6.500213e-05
9.740105e-05
0.0001398187
0.0001933227
0.0002586121
0.000336002
0.0004254778
0.0005267989
0.0006850983
0.0008949127
0.001139879
0.001421925
0.00174327
0.002106424
0.002514164
0.00296948
0.003475535
0.004035608
0.004653043
0.005331207
0.00607343
0.006882962
0.007762919
0.008716231
0.009745598
0.01085344
0.01204186
0.01331258
0.01466695
0.01610586
0.01762978
0.01923867
0.02093201
0.02270882
0.0245676
0.02650642
0.0285229
0.03061433
0.03277771
0.03500988
0.03730768
0.03966812
0.04208871
0.04456766
0.04710437
0.04969981
0.0523571
0.05508196
0.05788333
0.06077386
0.0637703
0.06689358
0.07016833
0.07362143
0.07727908
0.08116153
0.08527462
0.08959677
0.09406012
0.09852421
0.1028719
0.1070734
0.1110145
0.1144805
0.1171584
0.1186754
8.920668e-10
4.658193e-08
3.104855e-07
1.140226e-06
3.089247e-06
6.941683e-06
1.372289e-05
2.468642e-05
4.126817e-05
6.500213e-05
9.740105e-05
0.0001398187
0.0001933227
0.0002586121
0.000336002
0.0004254778
0.0005267989
0.0006850983
0.0008949127
0.001139879
0.001421925
0.00174327
0.002106424
0.002514164
0.00296948
0.003475535
0.004035608
0.004653043
0.005331207
0.00607343
0.006882962
0.007762919
0.008716231
0.009745598
0.01085344
0.01204186
0.01331258
0.01466695
0.01610586
0.01762978
0.01923867
0.02093201
0.02270882
0.0245676
0.02650642
0.0285229
0.03061433
0.03277771
0.03500988
0.03730768
0.03966812
0.04208871
0.04456766
0.04710437
0.04969981
0.0523571
0.05508196
0.05788333
0.06077386
0.0637703
0.06689358
0.07016833
0.07362143
0.07727908
0.08116153
0.08527462
0.08959677
0.09406012
0.09852421
0.1028719
0.1070734
0.1110145
0.1144805
0.1171584
0.1186754
)
;
    }
    wall
    {
        type            nutLowReWallFunction;
        Cmu             0.09;
        kappa           0.41;
        E               9.8;
        value           nonuniform List<scalar> 2(1.77664e-12 1.77664e-12);
    }
    frontAndBack
    {
        type            empty;
    }
    middle
    {
        type            symmetryPlane;
        value           nonuniform List<scalar> 2(0.1186754 0.1186754);
    }
}


// ************************************************************************* //
