/*--------------------------------*- C++ -*----------------------------------*\
| =========                 |                                                 |
| \\      /  F ield         | foam-extend: Open Source CFD                    |
|  \\    /   O peration     | Version:     4.0                                |
|   \\  /    A nd           | Web:         http://www.foam-extend.org         |
|    \\/     M anipulation  |                                                 |
\*---------------------------------------------------------------------------*/
FoamFile
{
    version     2.0;
    format      ascii;
    class       volSymmTensorField;
    location    "100";
    object      RStress;
}
// * * * * * * * * * * * * * * * * * * * * * * * * * * * * * * * * * * * * * //

dimensions      [0 2 -2 0 0 0 0];

internalField   nonuniform List<symmTensor> 
150
(
(0.002298431 -1.665972e-07 0 4.938117e-08 0 7.945839e-05)
(0.002298432 -1.665975e-07 0 4.938117e-08 0 7.945761e-05)
(0.02525 -8.68757e-06 0 2.497308e-06 0 0.0008731531)
(0.02525002 -8.687566e-06 0 2.497308e-06 0 0.0008731374)
(0.06826197 -5.78213e-05 0 1.612485e-05 0 0.002361655)
(0.06826199 -5.782124e-05 0 1.612485e-05 0 0.002361643)
(0.1330249 -0.000211994 0 5.739892e-05 0 0.004605416)
(0.1330249 -0.0002119939 0 5.739893e-05 0 0.00460541)
(0.221327 -0.0005732464 0 0.000150893 0 0.007669261)
(0.2213271 -0.0005732462 0 0.000150893 0 0.007669253)
(0.3350439 -0.001285022 0 0.0003294997 0 0.0116224)
(0.335044 -0.001285022 0 0.0003294997 0 0.01162238)
(0.4761123 -0.002532575 0 0.0006343739 0 0.0165381)
(0.4761124 -0.002532576 0 0.000634374 0 0.01653808)
(0.6461144 -0.004537899 0 0.00111456 0 0.02285993)
(0.6461145 -0.004537901 0 0.00111456 0 0.02285993)
(0.8442146 -0.00754715 0 0.001826269 0 0.03338906)
(0.8442146 -0.007547154 0 0.00182627 0 0.03338906)
(1.073534 -0.01180958 0 0.002831799 0 0.0468057)
(1.073534 -0.01180959 0 0.002831799 0 0.04680571)
(1.335241 -0.01754934 0 0.004198132 0 0.06345542)
(1.335241 -0.01754934 0 0.004198133 0 0.06345543)
(1.630105 -0.02493468 0 0.005995328 0 0.08365895)
(1.630105 -0.02493469 0 0.005995329 0 0.08365896)
(1.95839 -0.03405208 0 0.008294852 0 0.1077021)
(1.958391 -0.03405209 0 0.008294854 0 0.1077021)
(2.319783 -0.04489279 0 0.01116808 0 0.1358273)
(2.319783 -0.0448928 0 0.01116808 0 0.1358273)
(2.713366 -0.05735653 0 0.01468519 0 0.1682289)
(2.713366 -0.05735654 0 0.01468519 0 0.1682289)
(3.137657 -0.07127186 0 0.01891443 0 0.2050521)
(3.137657 -0.07127186 0 0.01891443 0 0.2050521)
(3.590706 -0.08625809 0 0.02392175 0 0.246397)
(3.590706 -0.0862581 0 0.02392176 0 0.246397)
(4.068474 -0.1088561 0 0.02974869 0 0.2921511)
(4.068474 -0.1088562 0 0.02974869 0 0.2921512)
(4.56213 -0.13694 0 0.03640463 0 0.341859)
(4.56213 -0.13694 0 0.03640463 0 0.3418591)
(5.061813 -0.1670815 0 0.04389715 0 0.3949978)
(5.061813 -0.1670815 0 0.04389715 0 0.3949978)
(5.558138 -0.1987911 0 0.05223248 0 0.4510294)
(5.558138 -0.1987911 0 0.05223249 0 0.4510294)
(6.041819 -0.2315132 0 0.0614062 0 0.5093428)
(6.041819 -0.2315132 0 0.06140621 0 0.5093429)
(6.504132 -0.2647319 0 0.07140308 0 0.5692779)
(6.504132 -0.2647319 0 0.0714031 0 0.569278)
(6.937293 -0.2979767 0 0.08219715 0 0.6301502)
(6.937293 -0.2979767 0 0.08219716 0 0.6301502)
(7.334742 -0.3308266 0 0.09375221 0 0.6912747)
(7.334742 -0.3308266 0 0.09375222 0 0.6912748)
(7.691318 -0.3629125 0 0.1060228 0 0.7519888)
(7.691318 -0.3629125 0 0.1060228 0 0.7519888)
(8.003334 -0.3939191 0 0.1189552 0 0.8116703)
(8.003334 -0.3939192 0 0.1189552 0 0.8116704)
(8.268554 -0.4235853 0 0.1324888 0 0.8697532)
(8.268554 -0.4235853 0 0.1324888 0 0.8697532)
(8.486091 -0.4517026 0 0.1465575 0 0.925737)
(8.486091 -0.4517027 0 0.1465575 0 0.9257371)
(8.656251 -0.478113 0 0.1610906 0 0.9791933)
(8.656252 -0.478113 0 0.1610906 0 0.9791934)
(8.780345 -0.502704 0 0.1760145 0 1.029767)
(8.780345 -0.5027041 0 0.1760145 0 1.029767)
(8.860474 -0.5254042 0 0.1912531 0 1.077175)
(8.860474 -0.5254042 0 0.1912531 0 1.077175)
(8.899332 -0.5461769 0 0.2067294 0 1.121202)
(8.899332 -0.546177 0 0.2067294 0 1.121202)
(8.900011 -0.5650145 0 0.2223654 0 1.161691)
(8.900011 -0.5650146 0 0.2223654 0 1.161691)
(8.865831 -0.5819323 0 0.2380834 0 1.198544)
(8.865831 -0.5819323 0 0.2380834 0 1.198544)
(8.800201 -0.5969627 0 0.253806 0 1.231703)
(8.800201 -0.5969627 0 0.253806 0 1.231703)
(8.706502 -0.6101505 0 0.2694566 0 1.261153)
(8.706503 -0.6101505 0 0.2694567 0 1.261153)
(8.588004 -0.6215483 0 0.2849596 0 1.286908)
(8.588005 -0.6215483 0 0.2849596 0 1.286908)
(8.447801 -0.6312129 0 0.3002405 0 1.309005)
(8.447801 -0.6312129 0 0.3002405 0 1.309005)
(8.28877 -0.6392024 0 0.3152262 0 1.327502)
(8.28877 -0.6392025 0 0.3152262 0 1.327502)
(8.11355 -0.6455741 0 0.3298451 0 1.342467)
(8.113551 -0.6455741 0 0.3298451 0 1.342467)
(7.924533 -0.6503825 0 0.3440274 0 1.353981)
(7.924533 -0.6503825 0 0.3440274 0 1.353981)
(7.723861 -0.6536787 0 0.3577049 0 1.362128)
(7.723861 -0.6536787 0 0.3577049 0 1.362128)
(7.513436 -0.6555096 0 0.3708115 0 1.366997)
(7.513436 -0.6555096 0 0.3708115 0 1.366997)
(7.294939 -0.6559174 0 0.3832836 0 1.368679)
(7.294939 -0.6559174 0 0.3832836 0 1.368679)
(7.069837 -0.6549398 0 0.3950601 0 1.367265)
(7.069838 -0.6549398 0 0.3950601 0 1.367265)
(6.839413 -0.6526099 0 0.406083 0 1.362846)
(6.839413 -0.6526099 0 0.406083 0 1.362846)
(6.604777 -0.6489561 0 0.4162979 0 1.355511)
(6.604778 -0.6489561 0 0.4162979 0 1.355511)
(6.366892 -0.6440024 0 0.4256547 0 1.345352)
(6.366892 -0.6440024 0 0.4256547 0 1.345352)
(6.126591 -0.6377687 0 0.4341079 0 1.33246)
(6.126591 -0.6377687 0 0.4341079 0 1.33246)
(5.884598 -0.6302704 0 0.4416181 0 1.316928)
(5.884598 -0.6302704 0 0.4416181 0 1.316928)
(5.641549 -0.6215186 0 0.4481523 0 1.298853)
(5.641549 -0.6215186 0 0.4481523 0 1.298853)
(5.398013 -0.6115202 0 0.4536855 0 1.278334)
(5.398013 -0.6115202 0 0.4536855 0 1.278334)
(5.154508 -0.6002779 0 0.4582014 0 1.255482)
(5.154508 -0.6002778 0 0.4582014 0 1.255481)
(4.911531 -0.5877898 0 0.4616941 0 1.230414)
(4.911531 -0.5877898 0 0.4616941 0 1.230414)
(4.669571 -0.57405 0 0.464169 0 1.203263)
(4.669571 -0.57405 0 0.464169 0 1.203263)
(4.429142 -0.5590477 0 0.4656434 0 1.174177)
(4.429142 -0.5590477 0 0.4656434 0 1.174177)
(4.190808 -0.5427673 0 0.4661474 0 1.143325)
(4.190808 -0.5427673 0 0.4661473 0 1.143325)
(3.955205 -0.5251881 0 0.4657233 0 1.110897)
(3.955205 -0.5251881 0 0.4657233 0 1.110897)
(3.723074 -0.5062841 0 0.4644259 0 1.07711)
(3.723074 -0.5062841 0 0.4644258 0 1.07711)
(3.495284 -0.4860234 0 0.4623195 0 1.042213)
(3.495284 -0.4860234 0 0.4623195 0 1.042213)
(3.272857 -0.4643677 0 0.4594754 0 1.006483)
(3.272857 -0.4643677 0 0.4594754 0 1.006483)
(3.056978 -0.4412715 0 0.4559651 0 0.9702282)
(3.056978 -0.4412715 0 0.4559651 0 0.9702282)
(2.849008 -0.4166812 0 0.4518522 0 0.9337836)
(2.849008 -0.4166812 0 0.4518522 0 0.9337836)
(2.650475 -0.3905342 0 0.4471786 0 0.8975028)
(2.650475 -0.3905341 0 0.4471786 0 0.8975028)
(2.463049 -0.3627579 0 0.4419551 0 0.8617466)
(2.463049 -0.3627579 0 0.4419551 0 0.8617466)
(2.288516 -0.3332694 0 0.4361111 0 0.8268644)
(2.288516 -0.3332694 0 0.4361111 0 0.8268643)
(2.128736 -0.3019755 0 0.4295565 0 0.7931711)
(2.128736 -0.3019755 0 0.4295565 0 0.7931711)
(1.985629 -0.2686999 0 0.42187 0 0.7609165)
(1.985629 -0.2686999 0 0.42187 0 0.7609165)
(1.860377 -0.2333534 0 0.4139249 0 0.7306269)
(1.860377 -0.2333534 0 0.4139249 0 0.7306269)
(1.753237 -0.1959771 0 0.4038825 0 0.7032476)
(1.753237 -0.1959771 0 0.4038825 0 0.7032476)
(1.664795 -0.1564593 0 0.4013544 0 0.6796599)
(1.664795 -0.1564593 0 0.4013544 0 0.6796599)
(1.59594 -0.1146844 0 0.3768346 0 0.6606956)
(1.59594 -0.1146844 0 0.3768346 0 0.6606956)
(1.547932 -0.07054456 0 0.4095292 0 0.6471692)
(1.547932 -0.07054455 0 0.4095292 0 0.6471692)
(1.522534 -0.02393905 0 0.3694281 0 0.6399094)
(1.522534 -0.02393904 0 0.369428 0 0.6399094)
)
;

boundaryField
{
    leftandright
    {
        type            cyclic;
        value           nonuniform List<symmTensor> 
150
(
(0.002298431 -1.665973e-07 0 4.938117e-08 0 7.9458e-05)
(0.02525001 -8.687568e-06 0 2.497308e-06 0 0.0008731452)
(0.06826198 -5.782127e-05 0 1.612485e-05 0 0.002361649)
(0.1330249 -0.0002119939 0 5.739892e-05 0 0.004605413)
(0.221327 -0.0005732463 0 0.000150893 0 0.007669257)
(0.335044 -0.001285022 0 0.0003294997 0 0.01162239)
(0.4761123 -0.002532576 0 0.000634374 0 0.01653809)
(0.6461144 -0.0045379 0 0.00111456 0 0.02285993)
(0.8442146 -0.007547152 0 0.00182627 0 0.03338906)
(1.073534 -0.01180959 0 0.002831799 0 0.0468057)
(1.335241 -0.01754934 0 0.004198132 0 0.06345543)
(1.630105 -0.02493469 0 0.005995328 0 0.08365896)
(1.95839 -0.03405209 0 0.008294853 0 0.1077021)
(2.319783 -0.04489279 0 0.01116808 0 0.1358273)
(2.713366 -0.05735653 0 0.01468519 0 0.1682289)
(3.137657 -0.07127186 0 0.01891443 0 0.2050521)
(3.590706 -0.08625809 0 0.02392176 0 0.246397)
(4.068474 -0.1088561 0 0.02974869 0 0.2921511)
(4.56213 -0.13694 0 0.03640463 0 0.3418591)
(5.061813 -0.1670815 0 0.04389715 0 0.3949978)
(5.558138 -0.1987911 0 0.05223249 0 0.4510294)
(6.041819 -0.2315132 0 0.0614062 0 0.5093428)
(6.504132 -0.2647319 0 0.07140309 0 0.569278)
(6.937293 -0.2979767 0 0.08219716 0 0.6301502)
(7.334742 -0.3308266 0 0.09375222 0 0.6912748)
(7.691318 -0.3629125 0 0.1060228 0 0.7519888)
(8.003334 -0.3939191 0 0.1189552 0 0.8116704)
(8.268554 -0.4235853 0 0.1324888 0 0.8697532)
(8.486091 -0.4517027 0 0.1465575 0 0.925737)
(8.656252 -0.478113 0 0.1610906 0 0.9791934)
(8.780345 -0.502704 0 0.1760145 0 1.029767)
(8.860474 -0.5254042 0 0.1912531 0 1.077175)
(8.899332 -0.5461769 0 0.2067294 0 1.121202)
(8.900011 -0.5650146 0 0.2223654 0 1.161691)
(8.865831 -0.5819323 0 0.2380834 0 1.198544)
(8.800201 -0.5969627 0 0.253806 0 1.231703)
(8.706502 -0.6101505 0 0.2694566 0 1.261153)
(8.588004 -0.6215483 0 0.2849596 0 1.286908)
(8.447801 -0.6312129 0 0.3002405 0 1.309005)
(8.28877 -0.6392025 0 0.3152262 0 1.327502)
(8.113551 -0.6455741 0 0.3298451 0 1.342467)
(7.924533 -0.6503825 0 0.3440274 0 1.353981)
(7.723861 -0.6536787 0 0.3577049 0 1.362128)
(7.513436 -0.6555096 0 0.3708115 0 1.366997)
(7.294939 -0.6559174 0 0.3832836 0 1.368679)
(7.069837 -0.6549398 0 0.3950601 0 1.367265)
(6.839413 -0.6526099 0 0.406083 0 1.362846)
(6.604777 -0.6489561 0 0.4162979 0 1.355511)
(6.366892 -0.6440024 0 0.4256547 0 1.345352)
(6.126591 -0.6377687 0 0.4341079 0 1.33246)
(5.884598 -0.6302704 0 0.4416181 0 1.316928)
(5.641549 -0.6215186 0 0.4481523 0 1.298853)
(5.398013 -0.6115202 0 0.4536855 0 1.278334)
(5.154508 -0.6002779 0 0.4582014 0 1.255482)
(4.911531 -0.5877898 0 0.4616941 0 1.230414)
(4.669571 -0.57405 0 0.464169 0 1.203263)
(4.429142 -0.5590477 0 0.4656434 0 1.174177)
(4.190808 -0.5427673 0 0.4661473 0 1.143325)
(3.955205 -0.5251881 0 0.4657233 0 1.110897)
(3.723074 -0.5062841 0 0.4644258 0 1.07711)
(3.495284 -0.4860234 0 0.4623195 0 1.042213)
(3.272857 -0.4643677 0 0.4594754 0 1.006483)
(3.056978 -0.4412715 0 0.4559651 0 0.9702282)
(2.849008 -0.4166812 0 0.4518522 0 0.9337836)
(2.650475 -0.3905342 0 0.4471786 0 0.8975028)
(2.463049 -0.3627579 0 0.4419551 0 0.8617466)
(2.288516 -0.3332694 0 0.4361111 0 0.8268643)
(2.128736 -0.3019755 0 0.4295565 0 0.7931711)
(1.985629 -0.2686999 0 0.42187 0 0.7609165)
(1.860377 -0.2333534 0 0.4139249 0 0.7306269)
(1.753237 -0.1959771 0 0.4038825 0 0.7032476)
(1.664795 -0.1564593 0 0.4013544 0 0.6796599)
(1.59594 -0.1146844 0 0.3768346 0 0.6606956)
(1.547932 -0.07054455 0 0.4095292 0 0.6471692)
(1.522534 -0.02393905 0 0.3694281 0 0.6399094)
(0.002298431 -1.665973e-07 0 4.938117e-08 0 7.9458e-05)
(0.02525001 -8.687568e-06 0 2.497308e-06 0 0.0008731452)
(0.06826198 -5.782127e-05 0 1.612485e-05 0 0.002361649)
(0.1330249 -0.0002119939 0 5.739892e-05 0 0.004605413)
(0.221327 -0.0005732463 0 0.000150893 0 0.007669257)
(0.335044 -0.001285022 0 0.0003294997 0 0.01162239)
(0.4761123 -0.002532576 0 0.000634374 0 0.01653809)
(0.6461144 -0.0045379 0 0.00111456 0 0.02285993)
(0.8442146 -0.007547152 0 0.00182627 0 0.03338906)
(1.073534 -0.01180959 0 0.002831799 0 0.0468057)
(1.335241 -0.01754934 0 0.004198132 0 0.06345543)
(1.630105 -0.02493469 0 0.005995328 0 0.08365896)
(1.95839 -0.03405209 0 0.008294853 0 0.1077021)
(2.319783 -0.04489279 0 0.01116808 0 0.1358273)
(2.713366 -0.05735653 0 0.01468519 0 0.1682289)
(3.137657 -0.07127186 0 0.01891443 0 0.2050521)
(3.590706 -0.08625809 0 0.02392176 0 0.246397)
(4.068474 -0.1088561 0 0.02974869 0 0.2921511)
(4.56213 -0.13694 0 0.03640463 0 0.3418591)
(5.061813 -0.1670815 0 0.04389715 0 0.3949978)
(5.558138 -0.1987911 0 0.05223249 0 0.4510294)
(6.041819 -0.2315132 0 0.0614062 0 0.5093428)
(6.504132 -0.2647319 0 0.07140309 0 0.569278)
(6.937293 -0.2979767 0 0.08219716 0 0.6301502)
(7.334742 -0.3308266 0 0.09375222 0 0.6912748)
(7.691318 -0.3629125 0 0.1060228 0 0.7519888)
(8.003334 -0.3939191 0 0.1189552 0 0.8116704)
(8.268554 -0.4235853 0 0.1324888 0 0.8697532)
(8.486091 -0.4517027 0 0.1465575 0 0.925737)
(8.656252 -0.478113 0 0.1610906 0 0.9791934)
(8.780345 -0.502704 0 0.1760145 0 1.029767)
(8.860474 -0.5254042 0 0.1912531 0 1.077175)
(8.899332 -0.5461769 0 0.2067294 0 1.121202)
(8.900011 -0.5650146 0 0.2223654 0 1.161691)
(8.865831 -0.5819323 0 0.2380834 0 1.198544)
(8.800201 -0.5969627 0 0.253806 0 1.231703)
(8.706502 -0.6101505 0 0.2694566 0 1.261153)
(8.588004 -0.6215483 0 0.2849596 0 1.286908)
(8.447801 -0.6312129 0 0.3002405 0 1.309005)
(8.28877 -0.6392025 0 0.3152262 0 1.327502)
(8.113551 -0.6455741 0 0.3298451 0 1.342467)
(7.924533 -0.6503825 0 0.3440274 0 1.353981)
(7.723861 -0.6536787 0 0.3577049 0 1.362128)
(7.513436 -0.6555096 0 0.3708115 0 1.366997)
(7.294939 -0.6559174 0 0.3832836 0 1.368679)
(7.069837 -0.6549398 0 0.3950601 0 1.367265)
(6.839413 -0.6526099 0 0.406083 0 1.362846)
(6.604777 -0.6489561 0 0.4162979 0 1.355511)
(6.366892 -0.6440024 0 0.4256547 0 1.345352)
(6.126591 -0.6377687 0 0.4341079 0 1.33246)
(5.884598 -0.6302704 0 0.4416181 0 1.316928)
(5.641549 -0.6215186 0 0.4481523 0 1.298853)
(5.398013 -0.6115202 0 0.4536855 0 1.278334)
(5.154508 -0.6002779 0 0.4582014 0 1.255482)
(4.911531 -0.5877898 0 0.4616941 0 1.230414)
(4.669571 -0.57405 0 0.464169 0 1.203263)
(4.429142 -0.5590477 0 0.4656434 0 1.174177)
(4.190808 -0.5427673 0 0.4661473 0 1.143325)
(3.955205 -0.5251881 0 0.4657233 0 1.110897)
(3.723074 -0.5062841 0 0.4644258 0 1.07711)
(3.495284 -0.4860234 0 0.4623195 0 1.042213)
(3.272857 -0.4643677 0 0.4594754 0 1.006483)
(3.056978 -0.4412715 0 0.4559651 0 0.9702282)
(2.849008 -0.4166812 0 0.4518522 0 0.9337836)
(2.650475 -0.3905342 0 0.4471786 0 0.8975028)
(2.463049 -0.3627579 0 0.4419551 0 0.8617466)
(2.288516 -0.3332694 0 0.4361111 0 0.8268643)
(2.128736 -0.3019755 0 0.4295565 0 0.7931711)
(1.985629 -0.2686999 0 0.42187 0 0.7609165)
(1.860377 -0.2333534 0 0.4139249 0 0.7306269)
(1.753237 -0.1959771 0 0.4038825 0 0.7032476)
(1.664795 -0.1564593 0 0.4013544 0 0.6796599)
(1.59594 -0.1146844 0 0.3768346 0 0.6606956)
(1.547932 -0.07054455 0 0.4095292 0 0.6471692)
(1.522534 -0.02393905 0 0.3694281 0 0.6399094)
)
;
    }
    wall
    {
        type            calculated;
        value           nonuniform List<symmTensor> 2((3.333333e-11 -3.320143e-10 0 9.999945e-11 0 6.666667e-11) (3.333333e-11 -3.32015e-10 0 9.999944e-11 0 6.666667e-11));
    }
    frontAndBack
    {
        type            empty;
    }
    middle
    {
        type            symmetryPlane;
        value           nonuniform List<symmTensor> 2((1.522534 0 0 0.523523 0 0.6399094) (1.522534 0 0 0.523523 0 0.6399094));
    }
}


// ************************************************************************* //
