/*--------------------------------*- C++ -*----------------------------------*\
| =========                 |                                                 |
| \\      /  F ield         | foam-extend: Open Source CFD                    |
|  \\    /   O peration     | Version:     4.0                                |
|   \\  /    A nd           | Web:         http://www.foam-extend.org         |
|    \\/     M anipulation  |                                                 |
\*---------------------------------------------------------------------------*/
FoamFile
{
    version     2.0;
    format      ascii;
    class       volSymmTensorField;
    location    "100";
    object      tauP;
}
// * * * * * * * * * * * * * * * * * * * * * * * * * * * * * * * * * * * * * //

dimensions      [0 2 -2 0 0 0 0];

internalField   nonuniform List<symmTensor> 
150
(
(2.124038 0.06525729 0 4.251201e-06 0 3.938074e-06)
(2.124115 0.06525549 0 4.247825e-06 0 3.950194e-06)
(2.122547 0.0652267 0 3.965133e-06 0 3.566208e-06)
(2.122686 0.06522831 0 4.006885e-06 0 3.680404e-06)
(2.119996 0.06518039 0 3.760749e-06 0 3.304286e-06)
(2.120036 0.06518154 0 3.746821e-06 0 3.347784e-06)
(2.116345 0.06512078 0 3.688493e-06 0 3.108765e-06)
(2.116356 0.06512165 0 3.667181e-06 0 3.120713e-06)
(2.111648 0.06504972 0 3.892546e-06 0 3.053312e-06)
(2.111656 0.06505018 0 3.878909e-06 0 3.06276e-06)
(2.105769 0.06496474 0 4.459257e-06 0 3.152272e-06)
(2.105777 0.06496479 0 4.452489e-06 0 3.1655e-06)
(2.098409 0.06486058 0 5.465007e-06 0 3.360433e-06)
(2.098418 0.06486033 0 5.46261e-06 0 3.377222e-06)
(2.08916 0.06473027 0 7.026271e-06 0 3.606086e-06)
(2.089169 0.06472984 0 7.026378e-06 0 3.624967e-06)
(2.077543 0.06456622 0 9.335541e-06 0 3.814126e-06)
(2.077553 0.06456574 0 9.337057e-06 0 3.834038e-06)
(2.063076 0.06436146 0 1.268602e-05 0 3.923589e-06)
(2.063086 0.06436101 0 1.268832e-05 0 3.943629e-06)
(2.04533 0.06411086 0 1.748691e-05 0 3.903687e-06)
(2.045339 0.06411049 0 1.748958e-05 0 3.923175e-06)
(2.023995 0.06381244 0 2.4268e-05 0 3.772336e-06)
(2.024004 0.06381219 0 2.427144e-05 0 3.791212e-06)
(1.998924 0.06346824 0 3.368127e-05 0 3.617118e-06)
(1.998932 0.06346814 0 3.368508e-05 0 3.634863e-06)
(1.970112 0.06308447 0 4.650379e-05 0 3.614308e-06)
(1.970119 0.06308447 0 4.650794e-05 0 3.630321e-06)
(1.937541 0.06266915 0 6.366044e-05 0 4.02512e-06)
(1.937548 0.06266921 0 6.366525e-05 0 4.039465e-06)
(1.900672 0.06222169 0 8.62402e-05 0 5.04087e-06)
(1.900678 0.06222183 0 8.624588e-05 0 5.053442e-06)
(1.857043 0.06169309 0 0.0001150966 0 5.980424e-06)
(1.857048 0.06169331 0 0.0001151032 0 5.991956e-06)
(1.80347 0.06100706 0 0.0001524211 0 5.689609e-06)
(1.803475 0.06100732 0 0.0001524284 0 5.699462e-06)
(1.739761 0.06015495 0 0.0001991473 0 4.183759e-06)
(1.739764 0.06015521 0 0.000199155 0 4.192027e-06)
(1.668868 0.05919735 0 0.0002557415 0 2.558319e-06)
(1.668872 0.05919762 0 0.0002557503 0 2.566547e-06)
(1.593476 0.05817743 0 0.0003227054 0 1.366255e-06)
(1.593479 0.05817768 0 0.0003227142 0 1.373851e-06)
(1.515138 0.05710695 0 0.0003999977 0 5.522858e-07)
(1.51514 0.05710723 0 0.0004000071 0 5.603054e-07)
(1.434944 0.05598864 0 0.0004874319 0 -1.661205e-08)
(1.434946 0.05598886 0 0.0004874412 0 -9.023436e-09)
(1.3538 0.05482327 0 0.00058476 0 -4.3098e-07)
(1.353802 0.05482348 0 0.0005847693 0 -4.228432e-07)
(1.272506 0.05361137 0 0.0006916278 0 -7.389529e-07)
(1.272508 0.05361156 0 0.0006916367 0 -7.306391e-07)
(1.191781 0.05235301 0 0.0008075132 0 -9.655352e-07)
(1.191783 0.05235318 0 0.0008075221 0 -9.566149e-07)
(1.112263 0.05104785 0 0.0009316783 0 -1.123373e-06)
(1.112265 0.05104801 0 0.0009316868 0 -1.113891e-06)
(1.034502 0.04969517 0 0.001063132 0 -1.224219e-06)
(1.034504 0.04969531 0 0.00106314 0 -1.214261e-06)
(0.9589665 0.04829404 0 0.001200609 0 -1.275538e-06)
(0.9589674 0.04829416 0 0.001200617 0 -1.266635e-06)
(0.8860386 0.04684361 0 0.001342561 0 -1.287508e-06)
(0.88604 0.04684372 0 0.00134257 0 -1.27831e-06)
(0.8160256 0.04534338 0 0.001487167 0 -1.267559e-06)
(0.8160274 0.04534348 0 0.001487174 0 -1.257746e-06)
(0.7491644 0.04379354 0 0.001632347 0 -1.221258e-06)
(0.7491656 0.04379362 0 0.001632355 0 -1.213211e-06)
(0.6856263 0.04219526 0 0.001775815 0 -1.156301e-06)
(0.6856272 0.04219533 0 0.001775823 0 -1.149195e-06)
(0.6255266 0.0405509 0 0.001915128 0 -1.078232e-06)
(0.6255275 0.04055096 0 0.001915136 0 -1.071683e-06)
(0.5689332 0.03886431 0 0.002047763 0 -9.912987e-07)
(0.5689339 0.03886434 0 0.002047767 0 -9.853792e-07)
(0.5158703 0.03714082 0 0.002171205 0 -9.000462e-07)
(0.5158705 0.03714084 0 0.002171211 0 -8.961049e-07)
(0.4663286 0.03538738 0 0.002283057 0 -8.074257e-07)
(0.4663286 0.03538739 0 0.00228306 0 -8.045878e-07)
(0.4202681 0.03361242 0 0.002381112 0 -7.157674e-07)
(0.4202681 0.03361243 0 0.002381118 0 -7.143787e-07)
(0.3776235 0.0318257 0 0.002463491 0 -6.275079e-07)
(0.3776235 0.0318257 0 0.002463493 0 -6.271568e-07)
(0.3383072 0.030038 0 0.002528692 0 -5.440772e-07)
(0.3383071 0.03003799 0 0.002528693 0 -5.443318e-07)
(0.3022125 0.02826075 0 0.002575679 0 -4.65661e-07)
(0.3022123 0.02826074 0 0.002575683 0 -4.67264e-07)
(0.2692156 0.02650565 0 0.002603921 0 -3.938324e-07)
(0.2692154 0.02650564 0 0.002603922 0 -3.961879e-07)
(0.2391779 0.02478417 0 0.002613381 0 -3.289438e-07)
(0.2391778 0.02478416 0 0.00261338 0 -3.315722e-07)
(0.2119477 0.02310714 0 0.002604524 0 -2.709033e-07)
(0.2119476 0.02310713 0 0.002604523 0 -2.740936e-07)
(0.1873624 0.0214843 0 0.002578256 0 -2.195815e-07)
(0.1873623 0.02148429 0 0.002578256 0 -2.232105e-07)
(0.1652509 0.019924 0 0.002535849 0 -1.75665e-07)
(0.1652508 0.01992398 0 0.002535845 0 -1.784641e-07)
(0.1454363 0.01843292 0 0.002478847 0 -1.37863e-07)
(0.1454362 0.01843291 0 0.002478846 0 -1.404901e-07)
(0.1277385 0.01701599 0 0.002408984 0 -1.064142e-07)
(0.1277384 0.01701599 0 0.002408983 0 -1.084036e-07)
(0.1119779 0.01567635 0 0.002328067 0 -8.007591e-08)
(0.1119779 0.01567635 0 0.002328066 0 -8.17387e-08)
(0.09797767 0.0144154 0 0.002237918 0 -5.897027e-08)
(0.09797765 0.0144154 0 0.002237918 0 -6.033139e-08)
(0.08556689 0.013233 0 0.002140275 0 -4.240241e-08)
(0.08556688 0.013233 0 0.002140275 0 -4.307415e-08)
(0.07458272 0.01212766 0 0.002036762 0 -2.944225e-08)
(0.07458276 0.01212766 0 0.002036761 0 -2.941699e-08)
(0.06487243 0.01109677 0 0.001928837 0 -1.982095e-08)
(0.06487244 0.01109677 0 0.001928837 0 -1.924197e-08)
(0.05629454 0.01013692 0 0.001817791 0 -1.226205e-08)
(0.05629455 0.01013692 0 0.001817791 0 -1.194529e-08)
(0.04871987 0.009244061 0 0.001704716 0 -7.383495e-09)
(0.04871991 0.009244066 0 0.001704717 0 -6.570115e-09)
(0.04203187 0.008413806 0 0.001590559 0 -3.948988e-09)
(0.04203192 0.008413807 0 0.001590559 0 -3.147723e-09)
(0.03612643 0.007641587 0 0.001476084 0 -1.448763e-09)
(0.03612644 0.007641591 0 0.001476084 0 -1.144658e-09)
(0.03091183 0.006922868 0 0.001361931 0 -1.095716e-10)
(0.03091184 0.006922872 0 0.001361932 0 8.672355e-11)
(0.02630806 0.00625329 0 0.001248625 0 4.486283e-10)
(0.02630807 0.00625329 0 0.001248625 0 5.261211e-10)
(0.02224607 0.005628778 0 0.001136606 0 9.592808e-10)
(0.02224607 0.005628778 0 0.001136606 0 5.461524e-10)
(0.01866692 0.005045712 0 0.001026276 0 1.217775e-09)
(0.01866692 0.005045712 0 0.001026273 0 1.138592e-09)
(0.01552073 0.004500959 0 0.0009180098 0 1.173541e-09)
(0.01552074 0.004500959 0 0.0009180097 0 1.092623e-09)
(0.01276557 0.003991973 0 0.0008122228 0 1.935797e-09)
(0.01276557 0.003991974 0 0.0008122227 0 1.49916e-09)
(0.01036605 0.003516806 0 0.0007093638 0 2.4799e-09)
(0.01036606 0.003516807 0 0.0007093638 0 2.079472e-09)
(0.008292021 0.00307411 0 0.0006100053 0 1.873912e-09)
(0.008292022 0.003074111 0 0.0006100055 0 1.873314e-09)
(0.006516719 0.002662993 0 0.000514774 0 5.35038e-10)
(0.00651672 0.002662994 0 0.0005147743 0 5.771134e-10)
(0.005015999 0.002283064 0 0.0004246472 0 -2.772767e-09)
(0.005016005 0.002283066 0 0.0004246478 0 -2.08187e-09)
(0.003765067 0.001933625 0 0.0003401702 0 -7.041709e-09)
(0.003765075 0.001933627 0 0.0003401712 0 -5.25799e-09)
(0.002740675 0.001614233 0 0.0002635356 0 -9.326356e-09)
(0.002740683 0.001614236 0 0.0002635369 0 -5.259608e-09)
(0.00190685 0.001319654 0 0.0001905444 0 -6.545648e-09)
(0.001906852 0.001319654 0 0.0001905489 0 -1.529063e-09)
(0.001266392 0.001053212 0 0.0001405657 0 5.909782e-09)
(0.001266389 0.001053208 0 0.000140565 0 6.814492e-09)
(0.0007163627 0.0007921725 0 5.606574e-05 0 8.973789e-09)
(0.0007163523 0.0007921655 0 5.60627e-05 0 -3.378555e-10)
(0.0004895271 0.0005789963 0 0.0001292756 0 9.461957e-09)
(0.0004895109 0.0005789958 0 0.0001292612 0 -1.210859e-08)
(-2.573802e-05 0.0003200215 0 -0.0001234538 0 -6.559219e-09)
(-2.573454e-05 0.0003200264 0 -0.0001234521 0 -2.565281e-09)
(0.000110456 0.000115166 0 8.301793e-05 0 3.124388e-09)
(0.0001104535 0.0001151653 0 8.301247e-05 0 6.654336e-10)
)
;

boundaryField
{
    leftandright
    {
        type            cyclic;
        value           nonuniform List<symmTensor> 
150
(
(2.124076 0.06525639 0 4.249513e-06 0 3.944134e-06)
(2.122616 0.0652275 0 3.986008e-06 0 3.623305e-06)
(2.120016 0.06518096 0 3.753785e-06 0 3.326035e-06)
(2.116351 0.06512122 0 3.677837e-06 0 3.114739e-06)
(2.111652 0.06504995 0 3.885728e-06 0 3.058036e-06)
(2.105773 0.06496476 0 4.455873e-06 0 3.158886e-06)
(2.098414 0.06486045 0 5.463808e-06 0 3.368827e-06)
(2.089164 0.06473006 0 7.026324e-06 0 3.615526e-06)
(2.077548 0.06456598 0 9.336299e-06 0 3.824082e-06)
(2.063081 0.06436124 0 1.268717e-05 0 3.933609e-06)
(2.045334 0.06411067 0 1.748825e-05 0 3.913431e-06)
(2.023999 0.06381232 0 2.426972e-05 0 3.781774e-06)
(1.998928 0.06346819 0 3.368318e-05 0 3.625991e-06)
(1.970116 0.06308447 0 4.650586e-05 0 3.622314e-06)
(1.937544 0.06266918 0 6.366285e-05 0 4.032293e-06)
(1.900675 0.06222176 0 8.624304e-05 0 5.047156e-06)
(1.857045 0.0616932 0 0.0001150999 0 5.98619e-06)
(1.803473 0.06100719 0 0.0001524247 0 5.694536e-06)
(1.739763 0.06015508 0 0.0001991511 0 4.187893e-06)
(1.66887 0.05919749 0 0.0002557459 0 2.562433e-06)
(1.593477 0.05817755 0 0.0003227098 0 1.370053e-06)
(1.515139 0.05710709 0 0.0004000024 0 5.562956e-07)
(1.434945 0.05598875 0 0.0004874366 0 -1.281774e-08)
(1.353801 0.05482338 0 0.0005847647 0 -4.269116e-07)
(1.272507 0.05361146 0 0.0006916322 0 -7.34796e-07)
(1.191782 0.05235309 0 0.0008075176 0 -9.61075e-07)
(1.112264 0.05104793 0 0.0009316825 0 -1.118632e-06)
(1.034503 0.04969524 0 0.001063136 0 -1.21924e-06)
(0.958967 0.0482941 0 0.001200613 0 -1.271087e-06)
(0.8860393 0.04684366 0 0.001342566 0 -1.282909e-06)
(0.8160265 0.04534343 0 0.001487171 0 -1.262652e-06)
(0.749165 0.04379358 0 0.001632351 0 -1.217234e-06)
(0.6856267 0.04219529 0 0.001775819 0 -1.152748e-06)
(0.6255271 0.04055093 0 0.001915132 0 -1.074958e-06)
(0.5689335 0.03886432 0 0.002047765 0 -9.88339e-07)
(0.5158704 0.03714083 0 0.002171208 0 -8.980755e-07)
(0.4663286 0.03538738 0 0.002283058 0 -8.060068e-07)
(0.4202681 0.03361242 0 0.002381115 0 -7.15073e-07)
(0.3776235 0.0318257 0 0.002463492 0 -6.273323e-07)
(0.3383071 0.03003799 0 0.002528692 0 -5.442045e-07)
(0.3022124 0.02826074 0 0.002575681 0 -4.664625e-07)
(0.2692155 0.02650564 0 0.002603921 0 -3.950102e-07)
(0.2391778 0.02478417 0 0.002613381 0 -3.30258e-07)
(0.2119476 0.02310713 0 0.002604524 0 -2.724984e-07)
(0.1873624 0.0214843 0 0.002578256 0 -2.21396e-07)
(0.1652509 0.01992399 0 0.002535847 0 -1.770645e-07)
(0.1454362 0.01843291 0 0.002478847 0 -1.391766e-07)
(0.1277385 0.01701599 0 0.002408984 0 -1.074089e-07)
(0.1119779 0.01567635 0 0.002328067 0 -8.09073e-08)
(0.09797766 0.0144154 0 0.002237918 0 -5.965083e-08)
(0.08556688 0.013233 0 0.002140275 0 -4.273828e-08)
(0.07458274 0.01212766 0 0.002036762 0 -2.942962e-08)
(0.06487243 0.01109677 0 0.001928837 0 -1.953146e-08)
(0.05629454 0.01013692 0 0.001817791 0 -1.210367e-08)
(0.04871989 0.009244064 0 0.001704717 0 -6.976805e-09)
(0.0420319 0.008413806 0 0.001590559 0 -3.548356e-09)
(0.03612643 0.007641589 0 0.001476084 0 -1.296711e-09)
(0.03091184 0.00692287 0 0.001361932 0 -1.1424e-11)
(0.02630807 0.00625329 0 0.001248625 0 4.873747e-10)
(0.02224607 0.005628778 0 0.001136606 0 7.527166e-10)
(0.01866692 0.005045712 0 0.001026275 0 1.178184e-09)
(0.01552073 0.004500959 0 0.0009180098 0 1.133082e-09)
(0.01276557 0.003991973 0 0.0008122228 0 1.717479e-09)
(0.01036605 0.003516807 0 0.0007093638 0 2.279686e-09)
(0.008292021 0.003074111 0 0.0006100054 0 1.873613e-09)
(0.006516719 0.002662993 0 0.0005147741 0 5.560757e-10)
(0.005016002 0.002283065 0 0.0004246475 0 -2.427318e-09)
(0.003765071 0.001933626 0 0.0003401707 0 -6.149849e-09)
(0.002740679 0.001614235 0 0.0002635362 0 -7.292982e-09)
(0.001906851 0.001319654 0 0.0001905467 0 -4.037355e-09)
(0.00126639 0.00105321 0 0.0001405653 0 6.362137e-09)
(0.0007163575 0.000792169 0 5.606422e-05 0 4.317967e-09)
(0.000489519 0.0005789961 0 0.0001292684 0 -1.323315e-09)
(-2.573628e-05 0.0003200239 0 -0.0001234529 0 -4.56225e-09)
(0.0001104547 0.0001151657 0 8.30152e-05 0 1.894911e-09)
(2.124076 0.06525639 0 4.249513e-06 0 3.944134e-06)
(2.122616 0.0652275 0 3.986008e-06 0 3.623305e-06)
(2.120016 0.06518096 0 3.753785e-06 0 3.326035e-06)
(2.116351 0.06512122 0 3.677837e-06 0 3.114739e-06)
(2.111652 0.06504995 0 3.885728e-06 0 3.058036e-06)
(2.105773 0.06496476 0 4.455873e-06 0 3.158886e-06)
(2.098414 0.06486045 0 5.463808e-06 0 3.368827e-06)
(2.089164 0.06473006 0 7.026324e-06 0 3.615526e-06)
(2.077548 0.06456598 0 9.336299e-06 0 3.824082e-06)
(2.063081 0.06436124 0 1.268717e-05 0 3.933609e-06)
(2.045334 0.06411067 0 1.748825e-05 0 3.913431e-06)
(2.023999 0.06381232 0 2.426972e-05 0 3.781774e-06)
(1.998928 0.06346819 0 3.368318e-05 0 3.625991e-06)
(1.970116 0.06308447 0 4.650586e-05 0 3.622314e-06)
(1.937544 0.06266918 0 6.366285e-05 0 4.032293e-06)
(1.900675 0.06222176 0 8.624304e-05 0 5.047156e-06)
(1.857045 0.0616932 0 0.0001150999 0 5.98619e-06)
(1.803473 0.06100719 0 0.0001524247 0 5.694536e-06)
(1.739763 0.06015508 0 0.0001991511 0 4.187893e-06)
(1.66887 0.05919749 0 0.0002557459 0 2.562433e-06)
(1.593477 0.05817755 0 0.0003227098 0 1.370053e-06)
(1.515139 0.05710709 0 0.0004000024 0 5.562956e-07)
(1.434945 0.05598875 0 0.0004874366 0 -1.281774e-08)
(1.353801 0.05482338 0 0.0005847647 0 -4.269116e-07)
(1.272507 0.05361146 0 0.0006916322 0 -7.34796e-07)
(1.191782 0.05235309 0 0.0008075176 0 -9.61075e-07)
(1.112264 0.05104793 0 0.0009316825 0 -1.118632e-06)
(1.034503 0.04969524 0 0.001063136 0 -1.21924e-06)
(0.958967 0.0482941 0 0.001200613 0 -1.271087e-06)
(0.8860393 0.04684366 0 0.001342566 0 -1.282909e-06)
(0.8160265 0.04534343 0 0.001487171 0 -1.262652e-06)
(0.749165 0.04379358 0 0.001632351 0 -1.217234e-06)
(0.6856267 0.04219529 0 0.001775819 0 -1.152748e-06)
(0.6255271 0.04055093 0 0.001915132 0 -1.074958e-06)
(0.5689335 0.03886432 0 0.002047765 0 -9.88339e-07)
(0.5158704 0.03714083 0 0.002171208 0 -8.980755e-07)
(0.4663286 0.03538738 0 0.002283058 0 -8.060068e-07)
(0.4202681 0.03361242 0 0.002381115 0 -7.15073e-07)
(0.3776235 0.0318257 0 0.002463492 0 -6.273323e-07)
(0.3383071 0.03003799 0 0.002528692 0 -5.442045e-07)
(0.3022124 0.02826074 0 0.002575681 0 -4.664625e-07)
(0.2692155 0.02650564 0 0.002603921 0 -3.950102e-07)
(0.2391778 0.02478417 0 0.002613381 0 -3.30258e-07)
(0.2119476 0.02310713 0 0.002604524 0 -2.724984e-07)
(0.1873624 0.0214843 0 0.002578256 0 -2.21396e-07)
(0.1652509 0.01992399 0 0.002535847 0 -1.770645e-07)
(0.1454362 0.01843291 0 0.002478847 0 -1.391766e-07)
(0.1277385 0.01701599 0 0.002408984 0 -1.074089e-07)
(0.1119779 0.01567635 0 0.002328067 0 -8.09073e-08)
(0.09797766 0.0144154 0 0.002237918 0 -5.965083e-08)
(0.08556688 0.013233 0 0.002140275 0 -4.273828e-08)
(0.07458274 0.01212766 0 0.002036762 0 -2.942962e-08)
(0.06487243 0.01109677 0 0.001928837 0 -1.953146e-08)
(0.05629454 0.01013692 0 0.001817791 0 -1.210367e-08)
(0.04871989 0.009244064 0 0.001704717 0 -6.976805e-09)
(0.0420319 0.008413806 0 0.001590559 0 -3.548356e-09)
(0.03612643 0.007641589 0 0.001476084 0 -1.296711e-09)
(0.03091184 0.00692287 0 0.001361932 0 -1.1424e-11)
(0.02630807 0.00625329 0 0.001248625 0 4.873747e-10)
(0.02224607 0.005628778 0 0.001136606 0 7.527166e-10)
(0.01866692 0.005045712 0 0.001026275 0 1.178184e-09)
(0.01552073 0.004500959 0 0.0009180098 0 1.133082e-09)
(0.01276557 0.003991973 0 0.0008122228 0 1.717479e-09)
(0.01036605 0.003516807 0 0.0007093638 0 2.279686e-09)
(0.008292021 0.003074111 0 0.0006100054 0 1.873613e-09)
(0.006516719 0.002662993 0 0.0005147741 0 5.560757e-10)
(0.005016002 0.002283065 0 0.0004246475 0 -2.427318e-09)
(0.003765071 0.001933626 0 0.0003401707 0 -6.149849e-09)
(0.002740679 0.001614235 0 0.0002635362 0 -7.292982e-09)
(0.001906851 0.001319654 0 0.0001905467 0 -4.037355e-09)
(0.00126639 0.00105321 0 0.0001405653 0 6.362137e-09)
(0.0007163575 0.000792169 0 5.606422e-05 0 4.317967e-09)
(0.000489519 0.0005789961 0 0.0001292684 0 -1.323315e-09)
(-2.573628e-05 0.0003200239 0 -0.0001234529 0 -4.56225e-09)
(0.0001104547 0.0001151657 0 8.30152e-05 0 1.894911e-09)
)
;
    }
    wall
    {
        type            calculated;
        value           nonuniform List<symmTensor> 2((2.124038 0.06525729 0 4.251201e-06 0 3.938074e-06) (2.124115 0.06525549 0 4.247825e-06 0 3.950194e-06));
    }
    frontAndBack
    {
        type            empty;
    }
    middle
    {
        type            symmetryPlane;
        value           nonuniform List<symmTensor> 2((0.000110456 0 0 8.301793e-05 0 3.124388e-09) (0.0001104535 0 0 8.301247e-05 0 6.654336e-10));
    }
}


// ************************************************************************* //
