/*--------------------------------*- C++ -*----------------------------------*\
| =========                 |                                                 |
| \\      /  F ield         | foam-extend: Open Source CFD                    |
|  \\    /   O peration     | Version:     4.0                                |
|   \\  /    A nd           | Web:         http://www.foam-extend.org         |
|    \\/     M anipulation  |                                                 |
\*---------------------------------------------------------------------------*/
FoamFile
{
    version     2.0;
    format      ascii;
    class       volVectorField;
    location    "100";
    object      U;
}
// * * * * * * * * * * * * * * * * * * * * * * * * * * * * * * * * * * * * * //

dimensions      [0 1 -1 0 0 0 0];

internalField   nonuniform List<vector> 
150
(
(0.1163602 9.688153e-08 0)
(0.1163605 9.753963e-08 0)
(0.3547129 2.844375e-07 0)
(0.3547132 2.835939e-07 0)
(0.6048999 4.584272e-07 0)
(0.6048998 4.560826e-07 0)
(0.867473 6.538984e-07 0)
(0.8674728 6.533914e-07 0)
(1.142982 8.617471e-07 0)
(1.142982 8.61149e-07 0)
(1.431958 1.067278e-06 0)
(1.431957 1.066395e-06 0)
(1.734892 1.2566e-06 0)
(1.734892 1.255658e-06 0)
(2.052215 1.414329e-06 0)
(2.052215 1.413426e-06 0)
(2.384267 1.523346e-06 0)
(2.384267 1.522481e-06 0)
(2.731276 1.567081e-06 0)
(2.731276 1.566234e-06 0)
(3.093337 1.532778e-06 0)
(3.093337 1.531962e-06 0)
(3.470403 1.416662e-06 0)
(3.470403 1.415869e-06 0)
(3.862288 1.235131e-06 0)
(3.862288 1.234333e-06 0)
(4.268689 1.027983e-06 0)
(4.268689 1.027206e-06 0)
(4.689207 7.73095e-07 0)
(4.689207 7.723417e-07 0)
(5.123389 -2.64824e-08 0)
(5.123389 -2.721904e-08 0)
(5.570768 -1.458762e-06 0)
(5.570768 -1.459496e-06 0)
(6.029089 -2.352837e-06 0)
(6.029089 -2.353579e-06 0)
(6.494467 -2.461626e-06 0)
(6.494467 -2.462327e-06 0)
(6.964055 -2.646903e-06 0)
(6.964055 -2.647599e-06 0)
(7.435796 -3.013343e-06 0)
(7.435796 -3.014038e-06 0)
(7.907722 -3.316638e-06 0)
(7.907722 -3.317298e-06 0)
(8.377985 -3.498898e-06 0)
(8.377985 -3.499553e-06 0)
(8.844889 -3.558638e-06 0)
(8.844889 -3.559269e-06 0)
(9.306902 -3.503579e-06 0)
(9.306901 -3.504172e-06 0)
(9.762673 -3.344492e-06 0)
(9.762673 -3.345059e-06 0)
(10.21104 -3.097276e-06 0)
(10.21104 -3.097807e-06 0)
(10.65103 -2.781718e-06 0)
(10.65103 -2.7822e-06 0)
(11.08187 -2.418918e-06 0)
(11.08187 -2.419346e-06 0)
(11.50295 -2.029198e-06 0)
(11.50295 -2.029663e-06 0)
(11.91384 -1.630747e-06 0)
(11.91383 -1.631118e-06 0)
(12.31426 -1.23828e-06 0)
(12.31426 -1.238529e-06 0)
(12.70408 -8.63021e-07 0)
(12.70408 -8.63291e-07 0)
(13.08329 -5.130661e-07 0)
(13.08329 -5.133664e-07 0)
(13.45197 -1.931748e-07 0)
(13.45197 -1.933409e-07 0)
(13.8103 9.476916e-08 0)
(13.8103 9.46415e-08 0)
(14.15852 3.503116e-07 0)
(14.15852 3.502411e-07 0)
(14.49691 5.749426e-07 0)
(14.49691 5.74933e-07 0)
(14.82581 7.711705e-07 0)
(14.82581 7.710956e-07 0)
(15.14558 9.418055e-07 0)
(15.14558 9.419394e-07 0)
(15.45659 1.090495e-06 0)
(15.45659 1.090576e-06 0)
(15.75921 1.220108e-06 0)
(15.75921 1.220139e-06 0)
(16.05383 1.333726e-06 0)
(16.05383 1.333858e-06 0)
(16.3408 1.434366e-06 0)
(16.3408 1.434513e-06 0)
(16.62047 1.52416e-06 0)
(16.62047 1.52424e-06 0)
(16.89319 1.604909e-06 0)
(16.89319 1.605058e-06 0)
(17.15925 1.678273e-06 0)
(17.15925 1.678499e-06 0)
(17.41894 1.74516e-06 0)
(17.41894 1.74532e-06 0)
(17.67251 1.806513e-06 0)
(17.67251 1.80669e-06 0)
(17.92018 1.86284e-06 0)
(17.92018 1.863018e-06 0)
(18.16214 1.914189e-06 0)
(18.16214 1.914364e-06 0)
(18.39853 1.960608e-06 0)
(18.39853 1.960775e-06 0)
(18.62944 2.001767e-06 0)
(18.62944 2.001916e-06 0)
(18.85492 2.035907e-06 0)
(18.85492 2.036039e-06 0)
(19.07498 2.05765e-06 0)
(19.07498 2.057759e-06 0)
(19.28954 2.062514e-06 0)
(19.28954 2.0626e-06 0)
(19.49848 2.048419e-06 0)
(19.49848 2.048485e-06 0)
(19.7016 2.010871e-06 0)
(19.7016 2.010916e-06 0)
(19.89863 1.942409e-06 0)
(19.89863 1.942444e-06 0)
(20.08921 1.834068e-06 0)
(20.08921 1.83405e-06 0)
(20.27292 1.674766e-06 0)
(20.27292 1.674779e-06 0)
(20.44923 1.454196e-06 0)
(20.44923 1.454244e-06 0)
(20.61758 1.157652e-06 0)
(20.61758 1.157648e-06 0)
(20.77732 7.978577e-07 0)
(20.77732 7.978501e-07 0)
(20.92778 2.864984e-07 0)
(20.92778 2.864871e-07 0)
(21.06827 -2.713822e-09 0)
(21.06827 -2.723767e-09 0)
(21.19811 -1.97345e-06 0)
(21.19811 -1.973457e-06 0)
(21.31668 2.294321e-06 0)
(21.31668 2.294309e-06 0)
(21.42344 -6.522085e-06 0)
(21.42344 -6.522085e-06 0)
(21.51784 4.687907e-05 0)
(21.51784 4.6879e-05 0)
(21.59925 -0.0001456548 0)
(21.59925 -0.0001456549 0)
(21.66688 0.0005211334 0)
(21.66688 0.0005211332 0)
(21.71978 -0.001840438 0)
(21.71978 -0.001840438 0)
(21.75681 0.006145427 0)
(21.75681 0.006145427 0)
(21.77642 -0.0122129 0)
(21.77642 -0.0122129 0)
)
;

boundaryField
{
    leftandright
    {
        type            cyclic;
        value           nonuniform List<vector> 
150
(
(0.1163604 9.721058e-08 0)
(0.3547131 2.840157e-07 0)
(0.6048998 4.572549e-07 0)
(0.8674729 6.536449e-07 0)
(1.142982 8.61448e-07 0)
(1.431957 1.066837e-06 0)
(1.734892 1.256129e-06 0)
(2.052215 1.413878e-06 0)
(2.384267 1.522914e-06 0)
(2.731276 1.566657e-06 0)
(3.093337 1.53237e-06 0)
(3.470403 1.416265e-06 0)
(3.862288 1.234732e-06 0)
(4.268689 1.027594e-06 0)
(4.689207 7.727183e-07 0)
(5.123389 -2.685072e-08 0)
(5.570768 -1.459129e-06 0)
(6.029089 -2.353208e-06 0)
(6.494467 -2.461977e-06 0)
(6.964055 -2.647251e-06 0)
(7.435796 -3.01369e-06 0)
(7.907722 -3.316968e-06 0)
(8.377985 -3.499226e-06 0)
(8.844889 -3.558953e-06 0)
(9.306901 -3.503875e-06 0)
(9.762673 -3.344776e-06 0)
(10.21104 -3.097542e-06 0)
(10.65103 -2.781959e-06 0)
(11.08187 -2.419132e-06 0)
(11.50295 -2.029431e-06 0)
(11.91384 -1.630932e-06 0)
(12.31426 -1.238405e-06 0)
(12.70408 -8.63156e-07 0)
(13.08329 -5.132163e-07 0)
(13.45197 -1.932578e-07 0)
(13.8103 9.470533e-08 0)
(14.15852 3.502764e-07 0)
(14.49691 5.749378e-07 0)
(14.82581 7.71133e-07 0)
(15.14558 9.418724e-07 0)
(15.45659 1.090535e-06 0)
(15.75921 1.220123e-06 0)
(16.05383 1.333792e-06 0)
(16.3408 1.43444e-06 0)
(16.62047 1.5242e-06 0)
(16.89319 1.604984e-06 0)
(17.15925 1.678386e-06 0)
(17.41894 1.74524e-06 0)
(17.67251 1.806601e-06 0)
(17.92018 1.862929e-06 0)
(18.16214 1.914277e-06 0)
(18.39853 1.960692e-06 0)
(18.62944 2.001841e-06 0)
(18.85492 2.035973e-06 0)
(19.07498 2.057705e-06 0)
(19.28954 2.062557e-06 0)
(19.49848 2.048452e-06 0)
(19.7016 2.010894e-06 0)
(19.89863 1.942427e-06 0)
(20.08921 1.834059e-06 0)
(20.27292 1.674772e-06 0)
(20.44923 1.45422e-06 0)
(20.61758 1.15765e-06 0)
(20.77732 7.978539e-07 0)
(20.92778 2.864928e-07 0)
(21.06827 -2.718795e-09 0)
(21.19811 -1.973453e-06 0)
(21.31668 2.294315e-06 0)
(21.42344 -6.522085e-06 0)
(21.51784 4.687904e-05 0)
(21.59925 -0.0001456548 0)
(21.66688 0.0005211333 0)
(21.71978 -0.001840438 0)
(21.75681 0.006145427 0)
(21.77642 -0.0122129 0)
(0.1163604 9.721058e-08 0)
(0.3547131 2.840157e-07 0)
(0.6048998 4.572549e-07 0)
(0.8674729 6.536449e-07 0)
(1.142982 8.61448e-07 0)
(1.431957 1.066837e-06 0)
(1.734892 1.256129e-06 0)
(2.052215 1.413878e-06 0)
(2.384267 1.522914e-06 0)
(2.731276 1.566657e-06 0)
(3.093337 1.53237e-06 0)
(3.470403 1.416265e-06 0)
(3.862288 1.234732e-06 0)
(4.268689 1.027594e-06 0)
(4.689207 7.727183e-07 0)
(5.123389 -2.685072e-08 0)
(5.570768 -1.459129e-06 0)
(6.029089 -2.353208e-06 0)
(6.494467 -2.461977e-06 0)
(6.964055 -2.647251e-06 0)
(7.435796 -3.01369e-06 0)
(7.907722 -3.316968e-06 0)
(8.377985 -3.499226e-06 0)
(8.844889 -3.558953e-06 0)
(9.306901 -3.503875e-06 0)
(9.762673 -3.344776e-06 0)
(10.21104 -3.097542e-06 0)
(10.65103 -2.781959e-06 0)
(11.08187 -2.419132e-06 0)
(11.50295 -2.029431e-06 0)
(11.91384 -1.630932e-06 0)
(12.31426 -1.238405e-06 0)
(12.70408 -8.63156e-07 0)
(13.08329 -5.132163e-07 0)
(13.45197 -1.932578e-07 0)
(13.8103 9.470533e-08 0)
(14.15852 3.502764e-07 0)
(14.49691 5.749378e-07 0)
(14.82581 7.71133e-07 0)
(15.14558 9.418724e-07 0)
(15.45659 1.090535e-06 0)
(15.75921 1.220123e-06 0)
(16.05383 1.333792e-06 0)
(16.3408 1.43444e-06 0)
(16.62047 1.5242e-06 0)
(16.89319 1.604984e-06 0)
(17.15925 1.678386e-06 0)
(17.41894 1.74524e-06 0)
(17.67251 1.806601e-06 0)
(17.92018 1.862929e-06 0)
(18.16214 1.914277e-06 0)
(18.39853 1.960692e-06 0)
(18.62944 2.001841e-06 0)
(18.85492 2.035973e-06 0)
(19.07498 2.057705e-06 0)
(19.28954 2.062557e-06 0)
(19.49848 2.048452e-06 0)
(19.7016 2.010894e-06 0)
(19.89863 1.942427e-06 0)
(20.08921 1.834059e-06 0)
(20.27292 1.674772e-06 0)
(20.44923 1.45422e-06 0)
(20.61758 1.15765e-06 0)
(20.77732 7.978539e-07 0)
(20.92778 2.864928e-07 0)
(21.06827 -2.718795e-09 0)
(21.19811 -1.973453e-06 0)
(21.31668 2.294315e-06 0)
(21.42344 -6.522085e-06 0)
(21.51784 4.687904e-05 0)
(21.59925 -0.0001456548 0)
(21.66688 0.0005211333 0)
(21.71978 -0.001840438 0)
(21.75681 0.006145427 0)
(21.77642 -0.0122129 0)
)
;
    }
    wall
    {
        type            fixedValue;
        value           uniform (0 0 0);
    }
    frontAndBack
    {
        type            empty;
    }
    middle
    {
        type            symmetryPlane;
        value           nonuniform List<vector> 2((21.77642 0 0) (21.77642 0 0));
    }
}


// ************************************************************************* //
