/*--------------------------------*- C++ -*----------------------------------*\
| =========                 |                                                 |
| \\      /  F ield         | foam-extend: Open Source CFD                    |
|  \\    /   O peration     | Version:     4.0                                |
|   \\  /    A nd           | Web:         http://www.foam-extend.org         |
|    \\/     M anipulation  |                                                 |
\*---------------------------------------------------------------------------*/
FoamFile
{
    version     2.0;
    format      ascii;
    class       volSymmTensorField;
    location    "100";
    object      C;
}
// * * * * * * * * * * * * * * * * * * * * * * * * * * * * * * * * * * * * * //

dimensions      [0 0 0 0 0 0 0];

internalField   nonuniform List<symmTensor> 
150
(
(498.6812 10.58179 0 0.4481211 0 0.4474072)
(498.6845 10.58154 0 0.4481158 0 0.4474011)
(498.4321 10.5844 0 0.4485227 0 0.4476882)
(498.4353 10.58416 0 0.4485177 0 0.4476847)
(497.9439 10.59179 0 0.4494635 0 0.4483026)
(497.9446 10.5916 0 0.4494598 0 0.4483016)
(497.1221 10.60543 0 0.4511897 0 0.4493275)
(497.1215 10.6053 0 0.4511874 0 0.4493274)
(495.8285 10.62711 0 0.4540726 0 0.450864)
(495.8278 10.62702 0 0.4540712 0 0.450864)
(493.9404 10.66032 0 0.4586236 0 0.4530252)
(493.9399 10.66027 0 0.4586229 0 0.4530253)
(491.393 10.71107 0 0.4654835 0 0.4559268)
(491.3928 10.71105 0 0.4654832 0 0.455927)
(488.1431 10.78764 0 0.4754611 0 0.4597049)
(488.1431 10.78763 0 0.4754609 0 0.4597052)
(483.9288 10.89656 0 0.4897075 0 0.4645682)
(483.9288 10.89655 0 0.4897074 0 0.4645685)
(478.2516 11.04029 0 0.5100412 0 0.4707677)
(478.2516 11.04029 0 0.5100413 0 0.470768)
(470.9334 11.22315 0 0.5380882 0 0.4784033)
(470.9334 11.22315 0 0.5380884 0 0.4784037)
(462.3739 11.45338 0 0.5745706 0 0.487299)
(462.3739 11.45339 0 0.5745709 0 0.4872994)
(453.08 11.73701 0 0.6202961 0 0.4971298)
(453.0801 11.73702 0 0.6202965 0 0.4971302)
(443.3486 12.07478 0 0.6762793 0 0.5075896)
(443.3487 12.0748 0 0.6762798 0 0.50759)
(433.3683 12.46558 0 0.7437683 0 0.5184342)
(433.3684 12.46559 0 0.7437689 0 0.5184346)
(423.2718 12.90756 0 0.8242337 0 0.5294786)
(423.272 12.90758 0 0.8242344 0 0.5294789)
(413.1573 13.39826 0 0.9193271 0 0.5405858)
(413.1574 13.39828 0 0.9193279 0 0.5405861)
(403.0956 13.93428 0 1.030823 0 0.5516571)
(403.0958 13.9343 0 1.030824 0 0.5516575)
(393.1331 14.511 0 1.160547 0 0.5626264)
(393.1333 14.51101 0 1.160549 0 0.5626266)
(383.2934 15.12235 0 1.310297 0 0.5734551)
(383.2934 15.12237 0 1.310298 0 0.5734555)
(373.5805 15.76079 0 1.481737 0 0.5841289)
(373.5806 15.7608 0 1.481738 0 0.5841293)
(363.9835 16.41729 0 1.6763 0 0.5946522)
(363.9835 16.4173 0 1.676301 0 0.5946526)
(354.48 17.08159 0 1.89507 0 0.6050438)
(354.4801 17.0816 0 1.895072 0 0.6050441)
(345.0419 17.74239 0 2.13868 0 0.6153315)
(345.0419 17.7424 0 2.138682 0 0.6153317)
(335.6377 18.38776 0 2.407207 0 0.6255483)
(335.6377 18.38777 0 2.407209 0 0.6255485)
(326.2366 19.00548 0 2.700097 0 0.6357287)
(326.2367 19.00549 0 2.700098 0 0.635729)
(316.8101 19.58344 0 3.016104 0 0.6459061)
(316.8102 19.58345 0 3.016106 0 0.6459063)
(307.3329 20.11001 0 3.353264 0 0.6561113)
(307.333 20.11003 0 3.353266 0 0.6561115)
(297.7838 20.57437 0 3.708891 0 0.6663716)
(297.7838 20.57438 0 3.708893 0 0.6663718)
(288.1451 20.96674 0 4.079609 0 0.6767112)
(288.1453 20.96675 0 4.079611 0 0.6767114)
(278.4033 21.27863 0 4.461412 0 0.6871508)
(278.4034 21.27864 0 4.461415 0 0.6871509)
(268.5473 21.50288 0 4.849712 0 0.6977079)
(268.5473 21.50289 0 4.849714 0 0.697708)
(258.5687 21.63367 0 5.239371 0 0.7083981)
(258.5689 21.63367 0 5.239373 0 0.7083983)
(248.4614 21.66641 0 5.62475 0 0.7192353)
(248.4615 21.66642 0 5.624752 0 0.7192355)
(238.2202 21.5978 0 5.999768 0 0.730232)
(238.2202 21.5978 0 5.99977 0 0.7302323)
(227.8412 21.42566 0 6.357967 0 0.7414)
(227.8413 21.42566 0 6.357968 0 0.7414002)
(217.3218 21.14894 0 6.692597 0 0.7527499)
(217.3218 21.14894 0 6.692599 0 0.75275)
(206.6602 20.7676 0 6.9967 0 0.7642914)
(206.6603 20.76761 0 6.996701 0 0.7642916)
(195.8557 20.2826 0 7.26321 0 0.7760331)
(195.8558 20.2826 0 7.263211 0 0.7760333)
(184.9094 19.69581 0 7.485074 0 0.787982)
(184.9094 19.69581 0 7.485075 0 0.7879821)
(173.8245 19.01002 0 7.655385 0 0.8001419)
(173.8246 19.01002 0 7.655385 0 0.8001419)
(162.6078 18.22899 0 7.767545 0 0.8125126)
(162.6078 18.22899 0 7.767547 0 0.8125126)
(151.2708 17.35747 0 7.815478 0 0.825088)
(151.2708 17.35748 0 7.815481 0 0.8250879)
(139.832 16.40148 0 7.793884 0 0.8378531)
(139.8321 16.40148 0 7.793885 0 0.837853)
(128.3203 15.36848 0 7.698589 0 0.8507805)
(128.3203 15.36849 0 7.698592 0 0.8507804)
(116.778 14.26785 0 7.527004 0 0.8638255)
(116.7781 14.26786 0 7.527005 0 0.8638253)
(105.2663 13.11146 0 7.278722 0 0.8769201)
(105.2664 13.11147 0 7.278726 0 0.8769199)
(93.87099 11.91435 0 6.956274 0 0.8899658)
(93.87104 11.91436 0 6.956278 0 0.8899655)
(82.70725 10.69543 0 6.565971 0 0.9028271)
(82.70732 10.69543 0 6.565974 0 0.9028267)
(71.92233 9.477867 0 6.118665 0 0.9153281)
(71.92242 9.477877 0 6.11867 0 0.9153277)
(61.69097 8.288694 0 5.630079 0 0.9272574)
(61.69104 8.288704 0 5.630084 0 0.9272571)
(52.19995 7.156918 0 5.120126 0 0.9383862)
(52.20003 7.156928 0 5.120132 0 0.9383859)
(43.62084 6.110102 0 4.610892 0 0.9485003)
(43.62092 6.110111 0 4.610898 0 0.9485)
(36.07673 5.169946 0 4.123397 0 0.9574404)
(36.07679 5.169954 0 4.123402 0 0.9574403)
(29.61641 4.348602 0 3.674192 0 0.9651342)
(29.61644 4.348608 0 3.674196 0 0.9651339)
(24.20843 3.647436 0 3.273194 0 0.9716046)
(24.20846 3.647439 0 3.273196 0 0.9716045)
(19.75741 3.058713 0 2.923565 0 0.9769535)
(19.75743 3.058716 0 2.923567 0 0.9769534)
(16.13245 2.569101 0 2.623291 0 0.9813279)
(16.13246 2.569102 0 2.623292 0 0.9813279)
(13.19459 2.163246 0 2.367371 0 0.9848874)
(13.1946 2.163247 0 2.367373 0 0.9848874)
(10.81525 1.826329 0 2.1497 0 0.9877819)
(10.81526 1.826329 0 2.1497 0 0.9877819)
(8.884757 1.545371 0 1.964254 0 0.9901401)
(8.884761 1.545372 0 1.964255 0 0.9901401)
(7.31394 1.30964 0 1.805691 0 0.9920674)
(7.313942 1.30964 0 1.805691 0 0.9920674)
(6.032183 1.110533 0 1.669512 0 0.9936473)
(6.032185 1.110534 0 1.669512 0 0.9936473)
(4.984621 0.9413452 0 1.552152 0 0.9949455)
(4.984621 0.9413452 0 1.552152 0 0.9949453)
(4.128034 0.7967708 0 1.450681 0 0.9960129)
(4.128034 0.7967709 0 1.450681 0 0.9960128)
(3.426352 0.6722889 0 1.362417 0 0.9968928)
(3.426354 0.672289 0 1.362417 0 0.9968928)
(2.852646 0.5644187 0 1.286101 0 0.9976168)
(2.852647 0.5644188 0 1.286101 0 0.9976168)
(2.38405 0.4699868 0 1.220422 0 0.9982116)
(2.384052 0.4699871 0 1.220423 0 0.998212)
(2.004446 0.3867215 0 1.164852 0 0.9986962)
(2.004447 0.3867217 0 1.164853 0 0.9986968)
(1.696424 0.3120284 0 1.116849 0 0.9990926)
(1.696425 0.3120286 0 1.116849 0 0.9990936)
(1.462144 0.2461293 0 1.081227 0 0.9993947)
(1.462143 0.2461289 0 1.081227 0 0.9993955)
(1.258721 0.1833508 0 1.041211 0 0.999667)
(1.258719 0.1833503 0 1.04121 0 0.9996654)
(1.179598 0.1323821 0 1.045788 0 0.9997508)
(1.179596 0.1323822 0 1.045787 0 0.9997474)
(0.9884768 0.07349731 0 0.9764857 0 0.999998)
(0.988477 0.07349756 0 0.976486 0 0.999999)
(1.040715 0.02607423 0 1.019693 0 0.9999337)
(1.040714 0.02607402 0 1.019691 0 0.9999325)
)
;

boundaryField
{
    leftandright
    {
        type            cyclic;
        value           nonuniform List<symmTensor> 
150
(
(498.6828 10.58167 0 0.4481184 0 0.4474042)
(498.4337 10.58428 0 0.4485202 0 0.4476864)
(497.9442 10.5917 0 0.4494616 0 0.4483021)
(497.1218 10.60537 0 0.4511886 0 0.4493275)
(495.8281 10.62707 0 0.4540719 0 0.450864)
(493.9402 10.66029 0 0.4586233 0 0.4530252)
(491.3929 10.71106 0 0.4654833 0 0.4559269)
(488.1431 10.78764 0 0.475461 0 0.459705)
(483.9288 10.89656 0 0.4897075 0 0.4645684)
(478.2516 11.04029 0 0.5100413 0 0.4707679)
(470.9334 11.22315 0 0.5380883 0 0.4784035)
(462.3739 11.45339 0 0.5745708 0 0.4872992)
(453.0801 11.73701 0 0.6202963 0 0.49713)
(443.3487 12.07479 0 0.6762796 0 0.5075898)
(433.3684 12.46559 0 0.7437686 0 0.5184344)
(423.2719 12.90757 0 0.8242341 0 0.5294788)
(413.1573 13.39827 0 0.9193275 0 0.5405859)
(403.0957 13.93429 0 1.030823 0 0.5516573)
(393.1332 14.51101 0 1.160548 0 0.5626265)
(383.2934 15.12236 0 1.310297 0 0.5734553)
(373.5805 15.76079 0 1.481737 0 0.5841291)
(363.9835 16.4173 0 1.6763 0 0.5946524)
(354.4801 17.08159 0 1.895071 0 0.6050439)
(345.0419 17.7424 0 2.138681 0 0.6153316)
(335.6377 18.38776 0 2.407208 0 0.6255484)
(326.2366 19.00548 0 2.700098 0 0.6357288)
(316.8102 19.58344 0 3.016105 0 0.6459062)
(307.333 20.11002 0 3.353265 0 0.6561114)
(297.7838 20.57438 0 3.708892 0 0.6663717)
(288.1452 20.96675 0 4.07961 0 0.6767113)
(278.4033 21.27864 0 4.461413 0 0.6871509)
(268.5473 21.50289 0 4.849713 0 0.697708)
(258.5688 21.63367 0 5.239372 0 0.7083982)
(248.4615 21.66642 0 5.624751 0 0.7192354)
(238.2202 21.5978 0 5.999769 0 0.7302322)
(227.8413 21.42566 0 6.357968 0 0.7414001)
(217.3218 21.14894 0 6.692598 0 0.75275)
(206.6602 20.76761 0 6.996701 0 0.7642915)
(195.8558 20.2826 0 7.26321 0 0.7760332)
(184.9094 19.69581 0 7.485074 0 0.7879821)
(173.8245 19.01002 0 7.655385 0 0.8001419)
(162.6078 18.22899 0 7.767546 0 0.8125126)
(151.2708 17.35748 0 7.815479 0 0.825088)
(139.8321 16.40148 0 7.793885 0 0.837853)
(128.3203 15.36849 0 7.698591 0 0.8507805)
(116.778 14.26785 0 7.527004 0 0.8638254)
(105.2663 13.11146 0 7.278724 0 0.87692)
(93.87101 11.91435 0 6.956276 0 0.8899657)
(82.70729 10.69543 0 6.565972 0 0.9028269)
(71.92237 9.477872 0 6.118668 0 0.9153279)
(61.69101 8.288699 0 5.630081 0 0.9272572)
(52.19999 7.156923 0 5.120129 0 0.9383861)
(43.62088 6.110106 0 4.610895 0 0.9485002)
(36.07676 5.16995 0 4.123399 0 0.9574404)
(29.61642 4.348605 0 3.674194 0 0.9651341)
(24.20844 3.647438 0 3.273195 0 0.9716046)
(19.75742 3.058715 0 2.923566 0 0.9769535)
(16.13245 2.569102 0 2.623291 0 0.9813279)
(13.19459 2.163247 0 2.367372 0 0.9848874)
(10.81526 1.826329 0 2.1497 0 0.9877819)
(8.884759 1.545371 0 1.964254 0 0.9901401)
(7.313941 1.30964 0 1.805691 0 0.9920674)
(6.032184 1.110533 0 1.669512 0 0.9936473)
(4.984621 0.9413452 0 1.552152 0 0.9949454)
(4.128034 0.7967709 0 1.450681 0 0.9960128)
(3.426353 0.6722889 0 1.362417 0 0.9968928)
(2.852646 0.5644187 0 1.286101 0 0.9976168)
(2.384051 0.469987 0 1.220422 0 0.9982118)
(2.004446 0.3867216 0 1.164853 0 0.9986965)
(1.696424 0.3120285 0 1.116849 0 0.9990931)
(1.462143 0.2461291 0 1.081227 0 0.9993951)
(1.25872 0.1833505 0 1.04121 0 0.9996662)
(1.179597 0.1323821 0 1.045787 0 0.9997491)
(0.9884769 0.07349744 0 0.9764859 0 0.9999985)
(1.040715 0.02607412 0 1.019692 0 0.9999331)
(498.6828 10.58167 0 0.4481184 0 0.4474042)
(498.4337 10.58428 0 0.4485202 0 0.4476864)
(497.9442 10.5917 0 0.4494616 0 0.4483021)
(497.1218 10.60537 0 0.4511886 0 0.4493275)
(495.8281 10.62707 0 0.4540719 0 0.450864)
(493.9402 10.66029 0 0.4586233 0 0.4530252)
(491.3929 10.71106 0 0.4654833 0 0.4559269)
(488.1431 10.78764 0 0.475461 0 0.459705)
(483.9288 10.89656 0 0.4897075 0 0.4645684)
(478.2516 11.04029 0 0.5100413 0 0.4707679)
(470.9334 11.22315 0 0.5380883 0 0.4784035)
(462.3739 11.45339 0 0.5745708 0 0.4872992)
(453.0801 11.73701 0 0.6202963 0 0.49713)
(443.3487 12.07479 0 0.6762796 0 0.5075898)
(433.3684 12.46559 0 0.7437686 0 0.5184344)
(423.2719 12.90757 0 0.8242341 0 0.5294788)
(413.1573 13.39827 0 0.9193275 0 0.5405859)
(403.0957 13.93429 0 1.030823 0 0.5516573)
(393.1332 14.51101 0 1.160548 0 0.5626265)
(383.2934 15.12236 0 1.310297 0 0.5734553)
(373.5805 15.76079 0 1.481737 0 0.5841291)
(363.9835 16.4173 0 1.6763 0 0.5946524)
(354.4801 17.08159 0 1.895071 0 0.6050439)
(345.0419 17.7424 0 2.138681 0 0.6153316)
(335.6377 18.38776 0 2.407208 0 0.6255484)
(326.2366 19.00548 0 2.700098 0 0.6357288)
(316.8102 19.58344 0 3.016105 0 0.6459062)
(307.333 20.11002 0 3.353265 0 0.6561114)
(297.7838 20.57438 0 3.708892 0 0.6663717)
(288.1452 20.96675 0 4.07961 0 0.6767113)
(278.4033 21.27864 0 4.461413 0 0.6871509)
(268.5473 21.50289 0 4.849713 0 0.697708)
(258.5688 21.63367 0 5.239372 0 0.7083982)
(248.4615 21.66642 0 5.624751 0 0.7192354)
(238.2202 21.5978 0 5.999769 0 0.7302322)
(227.8413 21.42566 0 6.357968 0 0.7414001)
(217.3218 21.14894 0 6.692598 0 0.75275)
(206.6602 20.76761 0 6.996701 0 0.7642915)
(195.8558 20.2826 0 7.26321 0 0.7760332)
(184.9094 19.69581 0 7.485074 0 0.7879821)
(173.8245 19.01002 0 7.655385 0 0.8001419)
(162.6078 18.22899 0 7.767546 0 0.8125126)
(151.2708 17.35748 0 7.815479 0 0.825088)
(139.8321 16.40148 0 7.793885 0 0.837853)
(128.3203 15.36849 0 7.698591 0 0.8507805)
(116.778 14.26785 0 7.527004 0 0.8638254)
(105.2663 13.11146 0 7.278724 0 0.87692)
(93.87101 11.91435 0 6.956276 0 0.8899657)
(82.70729 10.69543 0 6.565972 0 0.9028269)
(71.92237 9.477872 0 6.118668 0 0.9153279)
(61.69101 8.288699 0 5.630081 0 0.9272572)
(52.19999 7.156923 0 5.120129 0 0.9383861)
(43.62088 6.110106 0 4.610895 0 0.9485002)
(36.07676 5.16995 0 4.123399 0 0.9574404)
(29.61642 4.348605 0 3.674194 0 0.9651341)
(24.20844 3.647438 0 3.273195 0 0.9716046)
(19.75742 3.058715 0 2.923566 0 0.9769535)
(16.13245 2.569102 0 2.623291 0 0.9813279)
(13.19459 2.163247 0 2.367372 0 0.9848874)
(10.81526 1.826329 0 2.1497 0 0.9877819)
(8.884759 1.545371 0 1.964254 0 0.9901401)
(7.313941 1.30964 0 1.805691 0 0.9920674)
(6.032184 1.110533 0 1.669512 0 0.9936473)
(4.984621 0.9413452 0 1.552152 0 0.9949454)
(4.128034 0.7967709 0 1.450681 0 0.9960128)
(3.426353 0.6722889 0 1.362417 0 0.9968928)
(2.852646 0.5644187 0 1.286101 0 0.9976168)
(2.384051 0.469987 0 1.220422 0 0.9982118)
(2.004446 0.3867216 0 1.164853 0 0.9986965)
(1.696424 0.3120285 0 1.116849 0 0.9990931)
(1.462143 0.2461291 0 1.081227 0 0.9993951)
(1.25872 0.1833505 0 1.04121 0 0.9996662)
(1.179597 0.1323821 0 1.045787 0 0.9997491)
(0.9884769 0.07349744 0 0.9764859 0 0.9999985)
(1.040715 0.02607412 0 1.019692 0 0.9999331)
)
;
    }
    wall
    {
        type            zeroGradient;
    }
    frontAndBack
    {
        type            empty;
    }
    middle
    {
        type            symmetryPlane;
        value           nonuniform List<symmTensor> 2((1.040715 0 0 1.019693 0 0.9999337) (1.040714 0 0 1.019691 0 0.9999325));
    }
}


// ************************************************************************* //
