/*--------------------------------*- C++ -*----------------------------------*\
| =========                 |                                                 |
| \\      /  F ield         | foam-extend: Open Source CFD                    |
|  \\    /   O peration     | Version:     4.0                                |
|   \\  /    A nd           | Web:         http://www.foam-extend.org         |
|    \\/     M anipulation  |                                                 |
\*---------------------------------------------------------------------------*/
FoamFile
{
    version     2.0;
    format      ascii;
    class       volScalarField;
    location    "100";
    object      Ceps1;
}
// * * * * * * * * * * * * * * * * * * * * * * * * * * * * * * * * * * * * * //

dimensions      [0 0 0 0 0 0 0];

internalField   nonuniform List<scalar> 
150
(
6.295781
6.29578
3.696039
3.696039
2.92333
2.92333
2.562386
2.562386
2.355684
2.355684
2.222748
2.222748
2.130434
2.130434
2.062579
2.062579
2.010381
2.010381
1.968837
1.968837
1.934557
1.934557
1.905056
1.905056
1.878812
1.878812
1.854941
1.854941
1.832924
1.832924
1.812452
1.812452
1.793334
1.793334
1.775443
1.775443
1.758691
1.758691
1.743006
1.743006
1.728328
1.728328
1.714601
1.714601
1.70177
1.70177
1.689783
1.689783
1.678589
1.678589
1.668137
1.668137
1.658379
1.658379
1.649267
1.649266
1.640754
1.640754
1.632799
1.632799
1.625357
1.625357
1.618389
1.618389
1.611858
1.611858
1.60573
1.60573
1.599974
1.599974
1.594561
1.594561
1.589467
1.589467
1.584667
1.584667
1.580141
1.580141
1.575868
1.575868
1.57183
1.57183
1.568012
1.568012
1.564397
1.564397
1.560971
1.560971
1.55772
1.55772
1.554632
1.554632
1.551693
1.551693
1.548892
1.548892
1.546218
1.546218
1.543658
1.543658
1.541203
1.541203
1.538841
1.538841
1.536561
1.536561
1.534355
1.534355
1.532211
1.532211
1.530122
1.530122
1.528079
1.528079
1.526076
1.526076
1.524107
1.524107
1.522169
1.522169
1.520262
1.520262
1.518391
1.518391
1.516565
1.516565
1.514805
1.514805
1.513141
1.513141
1.511622
1.511622
1.510246
1.510246
1.508994
1.508994
1.507856
1.507856
1.50683
1.50683
1.505923
1.505923
1.505146
1.505146
1.50452
1.50452
1.50407
1.50407
1.503828
1.503828
)
;

boundaryField
{
    leftandright
    {
        type            cyclic;
        value           nonuniform List<scalar> 
150
(
6.295781
3.696039
2.92333
2.562386
2.355684
2.222748
2.130434
2.062579
2.010381
1.968837
1.934557
1.905056
1.878812
1.854941
1.832924
1.812452
1.793334
1.775443
1.758691
1.743006
1.728328
1.714601
1.70177
1.689783
1.678589
1.668137
1.658379
1.649266
1.640754
1.632799
1.625357
1.618389
1.611858
1.60573
1.599974
1.594561
1.589467
1.584667
1.580141
1.575868
1.57183
1.568012
1.564397
1.560971
1.55772
1.554632
1.551693
1.548892
1.546218
1.543658
1.541203
1.538841
1.536561
1.534355
1.532211
1.530122
1.528079
1.526076
1.524107
1.522169
1.520262
1.518391
1.516565
1.514805
1.513141
1.511622
1.510246
1.508994
1.507856
1.50683
1.505923
1.505146
1.50452
1.50407
1.503828
6.295781
3.696039
2.92333
2.562386
2.355684
2.222748
2.130434
2.062579
2.010381
1.968837
1.934557
1.905056
1.878812
1.854941
1.832924
1.812452
1.793334
1.775443
1.758691
1.743006
1.728328
1.714601
1.70177
1.689783
1.678589
1.668137
1.658379
1.649266
1.640754
1.632799
1.625357
1.618389
1.611858
1.60573
1.599974
1.594561
1.589467
1.584667
1.580141
1.575868
1.57183
1.568012
1.564397
1.560971
1.55772
1.554632
1.551693
1.548892
1.546218
1.543658
1.541203
1.538841
1.536561
1.534355
1.532211
1.530122
1.528079
1.526076
1.524107
1.522169
1.520262
1.518391
1.516565
1.514805
1.513141
1.511622
1.510246
1.508994
1.507856
1.50683
1.505923
1.505146
1.50452
1.50407
1.503828
)
;
    }
    wall
    {
        type            calculated;
        value           uniform 1.463;
    }
    frontAndBack
    {
        type            empty;
    }
    middle
    {
        type            symmetryPlane;
        value           nonuniform List<scalar> 2(1.503828 1.503828);
    }
}


// ************************************************************************* //
