/*--------------------------------*- C++ -*----------------------------------*\
| =========                 |                                                 |
| \\      /  F ield         | foam-extend: Open Source CFD                    |
|  \\    /   O peration     | Version:     4.0                                |
|   \\  /    A nd           | Web:         http://www.foam-extend.org         |
|    \\/     M anipulation  |                                                 |
\*---------------------------------------------------------------------------*/
FoamFile
{
    version     2.0;
    format      ascii;
    class       volSymmTensorField;
    location    "100";
    object      DiffC;
}
// * * * * * * * * * * * * * * * * * * * * * * * * * * * * * * * * * * * * * //

dimensions      [0 0 -1 0 0 0 0];

internalField   nonuniform List<symmTensor> 
150
(
(-15.66257 0.164068 0 0.02525296 0 0.01766744)
(-15.66518 0.1649575 0 0.02527278 0 0.01782943)
(-12.88123 0.2643882 0 0.02951406 0 0.01815641)
(-13.02536 0.2665134 0 0.029569 0 0.01814572)
(-15.90004 0.3024503 0 0.03798184 0 0.0195309)
(-15.82847 0.3028248 0 0.03798418 0 0.01943903)
(-20.03649 0.3422183 0 0.04980736 0 0.02140181)
(-19.97747 0.3416563 0 0.04978777 0 0.02137006)
(-22.29633 0.439889 0 0.06417915 0 0.02305065)
(-22.2804 0.4391777 0 0.06416098 0 0.02304556)
(-21.49408 0.6052561 0 0.07929693 0 0.02405973)
(-21.49502 0.6046977 0 0.07928542 0 0.02405834)
(-19.78544 0.8027555 0 0.09565571 0 0.02517398)
(-19.7894 0.8024011 0 0.09564969 0 0.02517376)
(-24.9799 0.8896253 0 0.1176105 0 0.02791183)
(-24.98262 0.8894326 0 0.1176079 0 0.02791126)
(-35.32625 0.8284045 0 0.1517732 0 0.03080142)
(-35.32831 0.8283142 0 0.1517725 0 0.03080136)
(-34.62585 0.8145079 0 0.1710712 0 0.02868876)
(-34.62606 0.814459 0 0.1710709 0 0.02868838)
(-20.12121 0.8823082 0 0.1624448 0 0.02018128)
(-20.1209 0.882276 0 0.1624446 0 0.02018091)
(-6.232671 0.8740593 0 0.1549385 0 0.01008699)
(-6.232866 0.8740368 0 0.1549385 0 0.01008696)
(0.7125585 0.7537015 0 0.1505413 0 0.002404638)
(0.7126151 0.75368 0 0.150541 0 0.002404938)
(4.27439 0.615114 0 0.1487061 0 -0.002577495)
(4.275078 0.6150953 0 0.1487057 0 -0.00257925)
(6.133848 0.4859713 0 0.1483376 0 -0.005519619)
(6.133067 0.4859747 0 0.1483381 0 -0.005518996)
(7.018872 0.3681632 0 0.1481885 0 -0.007070559)
(7.018126 0.3681675 0 0.1481891 0 -0.007070366)
(7.268705 0.2581657 0 0.1472239 0 -0.007698786)
(7.270013 0.2581472 0 0.1472229 0 -0.007699215)
(7.082332 0.1535224 0 0.144664 0 -0.007712058)
(7.081668 0.1535239 0 0.1446641 0 -0.007712575)
(6.603961 0.05394912 0 0.1399606 0 -0.007327121)
(6.603242 0.05395217 0 0.1399609 0 -0.007325751)
(5.957086 -0.03941816 0 0.1327644 0 -0.006700252)
(5.957643 -0.03943709 0 0.132763 0 -0.006700952)
(5.241357 -0.1246606 0 0.1229297 0 -0.005959223)
(5.241311 -0.124676 0 0.1229284 0 -0.005959333)
(4.526445 -0.1996543 0 0.1105176 0 -0.005188182)
(4.526623 -0.199626 0 0.1105184 0 -0.005188292)
(3.864079 -0.2626147 0 0.09577658 0 -0.004453367)
(3.864001 -0.2626237 0 0.09577713 0 -0.004453903)
(3.277821 -0.3123451 0 0.07912739 0 -0.003787678)
(3.277761 -0.3123725 0 0.0791252 0 -0.003787201)
(2.779684 -0.3483828 0 0.06111393 0 -0.003209791)
(2.780161 -0.3483689 0 0.06111383 0 -0.003209433)
(2.3667 -0.3709465 0 0.04236374 0 -0.002721092)
(2.365929 -0.3709108 0 0.04236728 0 -0.00272185)
(2.029021 -0.3808856 0 0.02353829 0 -0.002317853)
(2.029328 -0.3809109 0 0.02353646 0 -0.00231756)
(1.757087 -0.3797011 0 0.00525821 0 -0.001986895)
(1.757064 -0.3797284 0 0.005253944 0 -0.001986909)
(1.536739 -0.3690971 0 -0.01190045 0 -0.001716658)
(1.537106 -0.3690665 0 -0.01189807 0 -0.001716736)
(1.359364 -0.3508686 0 -0.02744514 0 -0.001495501)
(1.358731 -0.3508741 0 -0.02744452 0 -0.001495754)
(1.212138 -0.3271674 0 -0.0411214 0 -0.001314233)
(1.212401 -0.3271775 0 -0.04112311 0 -0.001314)
(1.090048 -0.3000029 0 -0.05285576 0 -0.001162167)
(1.090265 -0.3000234 0 -0.0528589 0 -0.00116196)
(0.9866407 -0.2709957 0 -0.06261618 0 -0.001033593)
(0.9861897 -0.2709751 0 -0.06261311 0 -0.00103381)
(0.8961613 -0.2413236 0 -0.07040397 0 -0.0009237387)
(0.8963659 -0.2413261 0 -0.07040507 0 -0.0009235997)
(0.817957 -0.2120366 0 -0.07628939 0 -0.000828441)
(0.8181364 -0.2120407 0 -0.07629129 0 -0.0008288874)
(0.7483211 -0.1837844 0 -0.08035369 0 -0.0007464091)
(0.7479589 -0.183778 0 -0.08035062 0 -0.0007462368)
(0.686955 -0.1571153 0 -0.08272251 0 -0.0006745781)
(0.6871116 -0.1571189 0 -0.08272422 0 -0.0006746227)
(0.6318461 -0.1323176 0 -0.08352428 0 -0.0006125557)
(0.631984 -0.1323199 0 -0.08352532 0 -0.0006125991)
(0.5839706 -0.1095524 0 -0.08290093 0 -0.0005590939)
(0.5836945 -0.10955 0 -0.08289997 0 -0.000559225)
(0.5421325 -0.08885293 0 -0.0809898 0 -0.0005148798)
(0.5423689 -0.08885636 0 -0.08099169 0 -0.0005147869)
(0.5067569 -0.07016515 0 -0.07792287 0 -0.0004786098)
(0.5065279 -0.07016162 0 -0.07792008 0 -0.0004785967)
(0.4778083 -0.05333278 0 -0.07380511 0 -0.0004510931)
(0.4779152 -0.05332811 0 -0.07380573 0 -0.0004511997)
(0.4562004 -0.03812582 0 -0.06872566 0 -0.000432699)
(0.456283 -0.03814177 0 -0.06872902 0 -0.0004325984)
(0.442196 -0.02432637 0 -0.06274098 0 -0.0004235424)
(0.4421087 -0.02431374 0 -0.06273857 0 -0.0004235164)
(0.4364034 -0.01159716 0 -0.05586658 0 -0.0004249499)
(0.4363854 -0.01160989 0 -0.05586908 0 -0.0004249278)
(0.4393577 0.0003462874 0 -0.04809183 0 -0.0004369478)
(0.4393514 0.0003569439 0 -0.04808917 0 -0.0004369243)
(0.4516499 0.01178496 0 -0.03939411 0 -0.0004602289)
(0.4516181 0.01177815 0 -0.03939639 0 -0.0004602612)
(0.4721417 0.02284293 0 -0.02979762 0 -0.0004937487)
(0.4721599 0.02283703 0 -0.02979893 0 -0.0004937056)
(0.4984301 0.03342118 0 -0.01945121 0 -0.0005342877)
(0.4984173 0.03342902 0 -0.01945002 0 -0.0005341767)
(0.5249666 0.04305944 0 -0.008750898 0 -0.0005752803)
(0.5249426 0.04305441 0 -0.008752749 0 -0.0005751748)
(0.5433176 0.05082671 0 0.001551912 0 -0.0006065224)
(0.5433089 0.05082428 0 0.001550808 0 -0.0006065194)
(0.5438125 0.0555902 0 0.01042617 0 -0.0006164305)
(0.5437959 0.05558867 0 0.01042526 0 -0.0006163853)
(0.519157 0.05643124 0 0.0168299 0 -0.0005957741)
(0.519142 0.05642986 0 0.016829 0 -0.0005956973)
(0.468579 0.05321305 0 0.02015719 0 -0.0005432061)
(0.4685702 0.05321138 0 0.02015562 0 -0.0005432415)
(0.3990534 0.04680447 0 0.02054092 0 -0.0004665946)
(0.3990504 0.0468038 0 0.02054103 0 -0.0004665011)
(0.3222146 0.03873838 0 0.01877483 0 -0.0003794168)
(0.3222103 0.03873796 0 0.01877426 0 -0.0003794229)
(0.2491193 0.03055042 0 0.01589596 0 -0.0002950768)
(0.2491163 0.03054981 0 0.01589562 0 -0.0002950378)
(0.1867055 0.02328135 0 0.01277725 0 -0.0002222488)
(0.1867063 0.02328162 0 0.01277749 0 -0.0002222707)
(0.1372801 0.01737238 0 0.009943028 0 -0.0001640713)
(0.1372785 0.01737197 0 0.009942346 0 -0.0001640726)
(0.1000176 0.01283046 0 0.00760071 0 -0.0001199579)
(0.1000152 0.01283083 0 0.007601151 0 -0.0001199584)
(0.07273596 0.009456118 0 0.005770219 0 -8.751411e-05)
(0.07273595 0.009455694 0 0.005769916 0 -8.751286e-05)
(0.05305069 0.006990899 0 0.004379366 0 -6.403741e-05)
(0.05305076 0.006991102 0 0.004379205 0 -6.40339e-05)
(0.03896326 0.005212764 0 0.003351361 0 -4.714056e-05)
(0.03896268 0.005212443 0 0.003351393 0 -4.714756e-05)
(0.02877174 0.003913703 0 0.002575425 0 -3.496637e-05)
(0.02877202 0.003913811 0 0.00257545 0 -3.492184e-05)
(0.02116066 0.002926891 0 0.001958887 0 -2.577706e-05)
(0.02116075 0.002926869 0 0.001958883 0 -2.578027e-05)
(0.01579346 0.002214636 0 0.001586689 0 -1.937189e-05)
(0.01579317 0.00221462 0 0.001586679 0 -1.936356e-05)
(0.01172941 0.001653536 0 0.001268377 0 -1.449437e-05)
(0.01172918 0.00165353 0 0.001268417 0 -1.447416e-05)
(0.00891909 0.001262989 0 0.00106351 0 -1.108236e-05)
(0.008918733 0.001262934 0 0.001063292 0 -1.113962e-05)
(0.006503325 0.0009169336 0 0.0007438976 0 -8.019438e-06)
(0.006503252 0.0009168907 0 0.0007436857 0 -8.115228e-06)
(0.005789171 0.0008159008 0 0.0009597582 0 -7.32613e-06)
(0.005789013 0.0008158552 0 0.00095977 0 -7.539741e-06)
(0.002507855 0.000379934 0 -0.0001506915 0 -2.595816e-06)
(0.002508185 0.000380013 0 -0.0001507328 0 -2.833749e-06)
(0.007138605 0.0007959113 0 0.002471684 0 -1.085194e-05)
(0.007139007 0.0007960467 0 0.00247192 0 -1.056064e-05)
(-0.005178598 -0.0002547466 0 -0.003555317 0 7.368713e-06)
(-0.005178268 -0.0002547934 0 -0.003554968 0 8.194966e-06)
(0.01099021 0.0006283337 0 0.005038701 0 -1.400002e-05)
(0.01099002 0.0006282685 0 0.005038502 0 -1.444071e-05)
(-0.002157906 -0.0001428305 0 -0.001784812 0 2.566089e-06)
(-0.002157571 -0.0001427609 0 -0.001784554 0 2.836874e-06)
)
;

boundaryField
{
    leftandright
    {
        type            cyclic;
        value           nonuniform List<symmTensor> 
150
(
(-15.66387 0.1645127 0 0.02526287 0 0.01774843)
(-12.9533 0.2654508 0 0.02954153 0 0.01815106)
(-15.86425 0.3026375 0 0.03798301 0 0.01948497)
(-20.00698 0.3419373 0 0.04979757 0 0.02138593)
(-22.28836 0.4395334 0 0.06417007 0 0.02304811)
(-21.49455 0.6049769 0 0.07929118 0 0.02405903)
(-19.78742 0.8025783 0 0.0956527 0 0.02517387)
(-24.98126 0.8895289 0 0.1176092 0 0.02791154)
(-35.32728 0.8283593 0 0.1517728 0 0.03080139)
(-34.62595 0.8144835 0 0.171071 0 0.02868857)
(-20.12106 0.8822921 0 0.1624447 0 0.02018109)
(-6.232768 0.874048 0 0.1549385 0 0.01008697)
(0.7125868 0.7536907 0 0.1505412 0 0.002404788)
(4.274734 0.6151046 0 0.1487059 0 -0.002578372)
(6.133457 0.485973 0 0.1483378 0 -0.005519307)
(7.018499 0.3681654 0 0.1481888 0 -0.007070462)
(7.269359 0.2581564 0 0.1472234 0 -0.007699)
(7.082 0.1535232 0 0.1446641 0 -0.007712317)
(6.603601 0.05395064 0 0.1399607 0 -0.007326436)
(5.957364 -0.03942762 0 0.1327637 0 -0.006700602)
(5.241334 -0.1246683 0 0.1229291 0 -0.005959278)
(4.526534 -0.1996401 0 0.110518 0 -0.005188237)
(3.86404 -0.2626192 0 0.09577685 0 -0.004453635)
(3.277791 -0.3123588 0 0.07912629 0 -0.003787439)
(2.779922 -0.3483759 0 0.06111388 0 -0.003209612)
(2.366314 -0.3709287 0 0.04236551 0 -0.002721471)
(2.029174 -0.3808982 0 0.02353738 0 -0.002317707)
(1.757076 -0.3797147 0 0.005256077 0 -0.001986902)
(1.536922 -0.3690818 0 -0.01189926 0 -0.001716697)
(1.359047 -0.3508713 0 -0.02744483 0 -0.001495628)
(1.212269 -0.3271725 0 -0.04112226 0 -0.001314117)
(1.090157 -0.3000132 0 -0.05285733 0 -0.001162064)
(0.9864152 -0.2709854 0 -0.06261464 0 -0.001033702)
(0.8962636 -0.2413248 0 -0.07040452 0 -0.0009236692)
(0.8180467 -0.2120386 0 -0.07629034 0 -0.0008286642)
(0.74814 -0.1837812 0 -0.08035215 0 -0.0007463229)
(0.6870333 -0.1571171 0 -0.08272337 0 -0.0006746004)
(0.6319151 -0.1323188 0 -0.0835248 0 -0.0006125774)
(0.5838325 -0.1095512 0 -0.08290045 0 -0.0005591594)
(0.5422507 -0.08885464 0 -0.08099075 0 -0.0005148333)
(0.5066424 -0.07016338 0 -0.07792148 0 -0.0004786032)
(0.4778618 -0.05333044 0 -0.07380542 0 -0.0004511464)
(0.4562417 -0.03813379 0 -0.06872734 0 -0.0004326487)
(0.4421524 -0.02432005 0 -0.06273977 0 -0.0004235294)
(0.4363944 -0.01160353 0 -0.05586783 0 -0.0004249388)
(0.4393545 0.0003516157 0 -0.0480905 0 -0.000436936)
(0.451634 0.01178156 0 -0.03939525 0 -0.000460245)
(0.4721508 0.02283998 0 -0.02979828 0 -0.0004937271)
(0.4984237 0.0334251 0 -0.01945062 0 -0.0005342322)
(0.5249546 0.04305692 0 -0.008751824 0 -0.0005752275)
(0.5433133 0.05082549 0 0.00155136 0 -0.0006065209)
(0.5438042 0.05558943 0 0.01042572 0 -0.0006164079)
(0.5191495 0.05643055 0 0.01682945 0 -0.0005957357)
(0.4685746 0.05321222 0 0.0201564 0 -0.0005432238)
(0.3990519 0.04680413 0 0.02054098 0 -0.0004665479)
(0.3222124 0.03873817 0 0.01877454 0 -0.0003794198)
(0.2491178 0.03055012 0 0.01589579 0 -0.0002950573)
(0.1867059 0.02328148 0 0.01277737 0 -0.0002222597)
(0.1372793 0.01737217 0 0.009942687 0 -0.000164072)
(0.1000164 0.01283064 0 0.00760093 0 -0.0001199582)
(0.07273596 0.009455906 0 0.005770068 0 -8.751349e-05)
(0.05305073 0.006991 0 0.004379286 0 -6.403566e-05)
(0.03896297 0.005212604 0 0.003351377 0 -4.714406e-05)
(0.02877188 0.003913757 0 0.002575438 0 -3.49441e-05)
(0.0211607 0.00292688 0 0.001958885 0 -2.577866e-05)
(0.01579332 0.002214628 0 0.001586684 0 -1.936772e-05)
(0.0117293 0.001653533 0 0.001268397 0 -1.448427e-05)
(0.008918911 0.001262961 0 0.001063401 0 -1.111099e-05)
(0.006503289 0.0009169121 0 0.0007437917 0 -8.067333e-06)
(0.005789092 0.000815878 0 0.0009597641 0 -7.432935e-06)
(0.00250802 0.0003799735 0 -0.0001507122 0 -2.714782e-06)
(0.007138806 0.000795979 0 0.002471802 0 -1.070629e-05)
(-0.005178433 -0.00025477 0 -0.003555142 0 7.781839e-06)
(0.01099012 0.0006283011 0 0.005038601 0 -1.422037e-05)
(-0.002157739 -0.0001427957 0 -0.001784683 0 2.701482e-06)
(-15.66387 0.1645127 0 0.02526287 0 0.01774843)
(-12.9533 0.2654508 0 0.02954153 0 0.01815106)
(-15.86425 0.3026375 0 0.03798301 0 0.01948497)
(-20.00698 0.3419373 0 0.04979757 0 0.02138593)
(-22.28836 0.4395334 0 0.06417007 0 0.02304811)
(-21.49455 0.6049769 0 0.07929118 0 0.02405903)
(-19.78742 0.8025783 0 0.0956527 0 0.02517387)
(-24.98126 0.8895289 0 0.1176092 0 0.02791154)
(-35.32728 0.8283593 0 0.1517728 0 0.03080139)
(-34.62595 0.8144835 0 0.171071 0 0.02868857)
(-20.12106 0.8822921 0 0.1624447 0 0.02018109)
(-6.232768 0.874048 0 0.1549385 0 0.01008697)
(0.7125868 0.7536907 0 0.1505412 0 0.002404788)
(4.274734 0.6151046 0 0.1487059 0 -0.002578372)
(6.133457 0.485973 0 0.1483378 0 -0.005519307)
(7.018499 0.3681654 0 0.1481888 0 -0.007070462)
(7.269359 0.2581564 0 0.1472234 0 -0.007699)
(7.082 0.1535232 0 0.1446641 0 -0.007712317)
(6.603601 0.05395064 0 0.1399607 0 -0.007326436)
(5.957364 -0.03942762 0 0.1327637 0 -0.006700602)
(5.241334 -0.1246683 0 0.1229291 0 -0.005959278)
(4.526534 -0.1996401 0 0.110518 0 -0.005188237)
(3.86404 -0.2626192 0 0.09577685 0 -0.004453635)
(3.277791 -0.3123588 0 0.07912629 0 -0.003787439)
(2.779922 -0.3483759 0 0.06111388 0 -0.003209612)
(2.366314 -0.3709287 0 0.04236551 0 -0.002721471)
(2.029174 -0.3808982 0 0.02353738 0 -0.002317707)
(1.757076 -0.3797147 0 0.005256077 0 -0.001986902)
(1.536922 -0.3690818 0 -0.01189926 0 -0.001716697)
(1.359047 -0.3508713 0 -0.02744483 0 -0.001495628)
(1.212269 -0.3271725 0 -0.04112226 0 -0.001314117)
(1.090157 -0.3000132 0 -0.05285733 0 -0.001162064)
(0.9864152 -0.2709854 0 -0.06261464 0 -0.001033702)
(0.8962636 -0.2413248 0 -0.07040452 0 -0.0009236692)
(0.8180467 -0.2120386 0 -0.07629034 0 -0.0008286642)
(0.74814 -0.1837812 0 -0.08035215 0 -0.0007463229)
(0.6870333 -0.1571171 0 -0.08272337 0 -0.0006746004)
(0.6319151 -0.1323188 0 -0.0835248 0 -0.0006125774)
(0.5838325 -0.1095512 0 -0.08290045 0 -0.0005591594)
(0.5422507 -0.08885464 0 -0.08099075 0 -0.0005148333)
(0.5066424 -0.07016338 0 -0.07792148 0 -0.0004786032)
(0.4778618 -0.05333044 0 -0.07380542 0 -0.0004511464)
(0.4562417 -0.03813379 0 -0.06872734 0 -0.0004326487)
(0.4421524 -0.02432005 0 -0.06273977 0 -0.0004235294)
(0.4363944 -0.01160353 0 -0.05586783 0 -0.0004249388)
(0.4393545 0.0003516157 0 -0.0480905 0 -0.000436936)
(0.451634 0.01178156 0 -0.03939525 0 -0.000460245)
(0.4721508 0.02283998 0 -0.02979828 0 -0.0004937271)
(0.4984237 0.0334251 0 -0.01945062 0 -0.0005342322)
(0.5249546 0.04305692 0 -0.008751824 0 -0.0005752275)
(0.5433133 0.05082549 0 0.00155136 0 -0.0006065209)
(0.5438042 0.05558943 0 0.01042572 0 -0.0006164079)
(0.5191495 0.05643055 0 0.01682945 0 -0.0005957357)
(0.4685746 0.05321222 0 0.0201564 0 -0.0005432238)
(0.3990519 0.04680413 0 0.02054098 0 -0.0004665479)
(0.3222124 0.03873817 0 0.01877454 0 -0.0003794198)
(0.2491178 0.03055012 0 0.01589579 0 -0.0002950573)
(0.1867059 0.02328148 0 0.01277737 0 -0.0002222597)
(0.1372793 0.01737217 0 0.009942687 0 -0.000164072)
(0.1000164 0.01283064 0 0.00760093 0 -0.0001199582)
(0.07273596 0.009455906 0 0.005770068 0 -8.751349e-05)
(0.05305073 0.006991 0 0.004379286 0 -6.403566e-05)
(0.03896297 0.005212604 0 0.003351377 0 -4.714406e-05)
(0.02877188 0.003913757 0 0.002575438 0 -3.49441e-05)
(0.0211607 0.00292688 0 0.001958885 0 -2.577866e-05)
(0.01579332 0.002214628 0 0.001586684 0 -1.936772e-05)
(0.0117293 0.001653533 0 0.001268397 0 -1.448427e-05)
(0.008918911 0.001262961 0 0.001063401 0 -1.111099e-05)
(0.006503289 0.0009169121 0 0.0007437917 0 -8.067333e-06)
(0.005789092 0.000815878 0 0.0009597641 0 -7.432935e-06)
(0.00250802 0.0003799735 0 -0.0001507122 0 -2.714782e-06)
(0.007138806 0.000795979 0 0.002471802 0 -1.070629e-05)
(-0.005178433 -0.00025477 0 -0.003555142 0 7.781839e-06)
(0.01099012 0.0006283011 0 0.005038601 0 -1.422037e-05)
(-0.002157739 -0.0001427957 0 -0.001784683 0 2.701482e-06)
)
;
    }
    wall
    {
        type            calculated;
        value           nonuniform List<symmTensor> 2((-15.66257 0.164068 0 0.02525296 0 0.01766744) (-15.66518 0.1649575 0 0.02527278 0 0.01782943));
    }
    frontAndBack
    {
        type            empty;
    }
    middle
    {
        type            symmetryPlane;
        value           nonuniform List<symmTensor> 2((-0.002157906 0 0 -0.001784812 0 2.566089e-06) (-0.002157571 0 0 -0.001784554 0 2.836874e-06));
    }
}


// ************************************************************************* //
