/*--------------------------------*- C++ -*----------------------------------*\
| =========                 |                                                 |
| \\      /  F ield         | foam-extend: Open Source CFD                    |
|  \\    /   O peration     | Version:     4.0                                |
|   \\  /    A nd           | Web:         http://www.foam-extend.org         |
|    \\/     M anipulation  |                                                 |
\*---------------------------------------------------------------------------*/
FoamFile
{
    version     2.0;
    format      ascii;
    class       volScalarField;
    location    "100";
    object      epsilonV;
}
// * * * * * * * * * * * * * * * * * * * * * * * * * * * * * * * * * * * * * //

dimensions      [0 2 -3 0 0 0 0];

internalField   nonuniform List<scalar> 
150
(
4.611759e-06
4.611683e-06
0.0002385125
0.0002385089
0.001515507
0.001515482
0.005188483
0.00518841
0.01284274
0.01284262
0.02580646
0.02580632
0.04466593
0.04466581
0.06909285
0.06909278
0.09779922
0.09779921
0.1403372
0.1403373
0.1981362
0.1981364
0.2609248
0.2609251
0.3271454
0.3271458
0.3955059
0.3955064
0.4650789
0.4650796
0.535197
0.5351978
0.6053625
0.6053634
0.6751655
0.6751665
0.7442141
0.7442152
0.8120822
0.8120833
0.8782767
0.8782777
0.9422256
0.9422265
1.003285
1.003286
1.060758
1.060759
1.113925
1.113926
1.162076
1.162077
1.204544
1.204545
1.240732
1.240733
1.270133
1.270134
1.292352
1.292353
1.30711
1.307111
1.314245
1.314246
1.313701
1.313702
1.305516
1.305517
1.289818
1.289819
1.266812
1.266813
1.236777
1.236777
1.200055
1.200055
1.157047
1.157047
1.10821
1.10821
1.054053
1.054054
0.9951386
0.9951389
0.9320811
0.9320817
0.8655576
0.8655578
0.796312
0.7963126
0.7251705
0.7251707
0.6530562
0.6530568
0.5810071
0.5810076
0.5101827
0.5101828
0.4418522
0.4418527
0.3773421
0.3773426
0.3179215
0.317922
0.2646377
0.2646381
0.2181408
0.2181412
0.1785751
0.1785753
0.1455941
0.1455943
0.1184949
0.118495
0.09640332
0.09640336
0.07843589
0.07843592
0.06379893
0.06379893
0.05182863
0.05182866
0.04199297
0.04199297
0.03387459
0.03387461
0.02715257
0.02715257
0.02157524
0.02157524
0.01693037
0.01693037
0.01307166
0.01307166
0.009870894
0.009870899
0.007240962
0.007240966
0.005067735
0.005067737
0.003409357
0.003409351
0.001886136
0.00188613
0.001439144
0.001439145
-0.0002373919
-0.0002373911
0.0003900644
0.0003900636
)
;

boundaryField
{
    leftandright
    {
        type            cyclic;
        value           nonuniform List<scalar> 
150
(
4.611721e-06
0.0002385107
0.001515494
0.005188446
0.01284268
0.02580639
0.04466587
0.06909282
0.09779922
0.1403373
0.1981363
0.260925
0.3271456
0.3955061
0.4650792
0.5351974
0.6053629
0.675166
0.7442147
0.8120828
0.8782772
0.9422261
1.003285
1.060758
1.113925
1.162077
1.204545
1.240732
1.270133
1.292352
1.30711
1.314245
1.313701
1.305517
1.289818
1.266813
1.236777
1.200055
1.157047
1.10821
1.054054
0.9951387
0.9320814
0.8655577
0.7963123
0.7251706
0.6530565
0.5810074
0.5101828
0.4418524
0.3773424
0.3179218
0.2646379
0.218141
0.1785752
0.1455942
0.1184949
0.09640334
0.07843591
0.06379893
0.05182865
0.04199297
0.0338746
0.02715257
0.02157524
0.01693037
0.01307166
0.009870897
0.007240964
0.005067736
0.003409354
0.001886133
0.001439145
-0.0002373915
0.000390064
4.611721e-06
0.0002385107
0.001515494
0.005188446
0.01284268
0.02580639
0.04466587
0.06909282
0.09779922
0.1403373
0.1981363
0.260925
0.3271456
0.3955061
0.4650792
0.5351974
0.6053629
0.675166
0.7442147
0.8120828
0.8782772
0.9422261
1.003285
1.060758
1.113925
1.162077
1.204545
1.240732
1.270133
1.292352
1.30711
1.314245
1.313701
1.305517
1.289818
1.266813
1.236777
1.200055
1.157047
1.10821
1.054054
0.9951387
0.9320814
0.8655577
0.7963123
0.7251706
0.6530565
0.5810074
0.5101828
0.4418524
0.3773424
0.3179218
0.2646379
0.218141
0.1785752
0.1455942
0.1184949
0.09640334
0.07843591
0.06379893
0.05182865
0.04199297
0.0338746
0.02715257
0.02157524
0.01693037
0.01307166
0.009870897
0.007240964
0.005067736
0.003409354
0.001886133
0.001439145
-0.0002373915
0.000390064
)
;
    }
    wall
    {
        type            calculated;
        value           nonuniform List<scalar> 2(6.922709e-10 6.922594e-10);
    }
    frontAndBack
    {
        type            empty;
    }
    middle
    {
        type            symmetryPlane;
        value           nonuniform List<scalar> 2(0.0003900644 0.0003900636);
    }
}


// ************************************************************************* //
