/*--------------------------------*- C++ -*----------------------------------*\
| =========                 |                                                 |
| \\      /  F ield         | foam-extend: Open Source CFD                    |
|  \\    /   O peration     | Version:     4.0                                |
|   \\  /    A nd           | Web:         http://www.foam-extend.org         |
|    \\/     M anipulation  |                                                 |
\*---------------------------------------------------------------------------*/
FoamFile
{
    version     2.0;
    format      ascii;
    class       volScalarField;
    location    "100";
    object      epsilon;
}
// * * * * * * * * * * * * * * * * * * * * * * * * * * * * * * * * * * * * * //

dimensions      [0 2 -3 0 0 0 0];

internalField   nonuniform List<scalar> 
150
(
69.57398
69.57399
60.75998
60.75999
53.81586
53.81586
48.63387
48.63388
45.13501
45.13502
43.24694
43.24694
42.88221
42.88222
43.92447
43.92448
46.2284
46.2284
49.62949
49.62949
53.69611
53.69611
57.87026
57.87026
61.72059
61.7206
64.93304
64.93304
67.31005
67.31005
68.76016
68.76017
69.27973
69.27973
68.93069
68.9307
67.81799
67.81799
66.06943
66.06943
63.81961
63.81962
61.19835
61.19835
58.32322
58.32322
55.29574
55.29574
52.19994
52.19994
49.10288
49.10288
46.05609
46.05609
43.09763
43.09763
40.25424
40.25424
37.54354
37.54354
34.97589
34.97589
32.55613
32.55613
30.28494
30.28494
28.15998
28.15998
26.17676
26.17676
24.32934
24.32934
22.61086
22.61086
21.01393
21.01393
19.53092
19.53092
18.15416
18.15416
16.87613
16.87613
15.68953
15.68953
14.58734
14.58734
13.56292
13.56292
12.60995
12.60995
11.72253
11.72253
10.89509
10.89509
10.1225
10.1225
9.399961
9.399961
8.72309
8.72309
8.087883
8.087883
7.490735
7.490735
6.928453
6.928453
6.398253
6.398253
5.897761
5.89776
5.424991
5.424991
4.978323
4.978323
4.556461
4.556461
4.158397
4.158397
3.783374
3.783374
3.430853
3.430853
3.100473
3.100473
2.792018
2.792018
2.505369
2.505369
2.240457
2.240457
1.997199
1.997199
1.775594
1.775594
1.57585
1.57585
1.398362
1.398362
1.24364
1.24364
1.112244
1.112244
1.004771
1.004771
0.9219031
0.9219031
0.8646269
0.8646269
0.834532
0.834532
)
;

boundaryField
{
    leftandright
    {
        type            cyclic;
        value           nonuniform List<scalar> 
150
(
69.57398
60.75999
53.81586
48.63388
45.13501
43.24694
42.88222
43.92448
46.2284
49.62949
53.69611
57.87026
61.7206
64.93304
67.31005
68.76016
69.27973
68.93069
67.81799
66.06943
63.81961
61.19835
58.32322
55.29574
52.19994
49.10288
46.05609
43.09763
40.25424
37.54354
34.97589
32.55613
30.28494
28.15998
26.17676
24.32934
22.61086
21.01393
19.53092
18.15416
16.87613
15.68953
14.58734
13.56292
12.60995
11.72253
10.89509
10.1225
9.399961
8.72309
8.087883
7.490735
6.928453
6.398253
5.897761
5.424991
4.978323
4.556461
4.158397
3.783374
3.430853
3.100473
2.792018
2.505369
2.240457
1.997199
1.775594
1.57585
1.398362
1.24364
1.112244
1.004771
0.9219031
0.8646269
0.834532
69.57398
60.75999
53.81586
48.63388
45.13501
43.24694
42.88222
43.92448
46.2284
49.62949
53.69611
57.87026
61.7206
64.93304
67.31005
68.76016
69.27973
68.93069
67.81799
66.06943
63.81961
61.19835
58.32322
55.29574
52.19994
49.10288
46.05609
43.09763
40.25424
37.54354
34.97589
32.55613
30.28494
28.15998
26.17676
24.32934
22.61086
21.01393
19.53092
18.15416
16.87613
15.68953
14.58734
13.56292
12.60995
11.72253
10.89509
10.1225
9.399961
8.72309
8.087883
7.490735
6.928453
6.398253
5.897761
5.424991
4.978323
4.556461
4.158397
3.783374
3.430853
3.100473
2.792018
2.505369
2.240457
1.997199
1.775594
1.57585
1.398362
1.24364
1.112244
1.004771
0.9219031
0.8646269
0.834532
)
;
    }
    wall
    {
        type            groovyBC;
        refValue        nonuniform List<scalar> 2(75.12737 75.12738);
        refGradient     uniform 0;
        valueFraction   uniform 1;
        value           nonuniform List<scalar> 2(75.12737 75.12738);
        valueExpression "2*nu*internalField(k)/sqr(mag(delta()))";
        gradientExpression "0";
        fractionExpression "1";
        evaluateDuringConstruction 0;
        variables       "";
        timelines       (
);
        lookuptables    (
);
    }
    frontAndBack
    {
        type            empty;
    }
    middle
    {
        type            symmetryPlane;
        value           nonuniform List<scalar> 2(0.834532 0.834532);
    }
}


// ************************************************************************* //
