/*--------------------------------*- C++ -*----------------------------------*\
| =========                 |                                                 |
| \\      /  F ield         | foam-extend: Open Source CFD                    |
|  \\    /   O peration     | Version:     4.0                                |
|   \\  /    A nd           | Web:         http://www.foam-extend.org         |
|    \\/     M anipulation  |                                                 |
\*---------------------------------------------------------------------------*/
FoamFile
{
    version     2.0;
    format      ascii;
    class       volScalarField;
    location    "100";
    object      epsilonPlus;
}
// * * * * * * * * * * * * * * * * * * * * * * * * * * * * * * * * * * * * * //

dimensions      [0 4 -4 0 0 0 0];

internalField   nonuniform List<scalar> 
150
(
0.1761367
0.1761367
0.1538227
0.1538228
0.1362427
0.1362427
0.1231237
0.1231237
0.1142659
0.1142659
0.1094859
0.1094859
0.1085626
0.1085626
0.1112012
0.1112012
0.1170339
0.1170339
0.1256443
0.1256443
0.1359395
0.1359395
0.146507
0.146507
0.1562547
0.1562547
0.1643874
0.1643874
0.1704052
0.1704052
0.1740764
0.1740764
0.1753917
0.1753917
0.1745081
0.1745081
0.1716911
0.1716911
0.1672644
0.1672644
0.1615686
0.1615686
0.1549325
0.1549325
0.1476537
0.1476537
0.1399892
0.1399892
0.1321517
0.1321517
0.1243111
0.1243111
0.1165977
0.1165977
0.1091079
0.1091079
0.1019095
0.1019095
0.09504693
0.09504693
0.08854655
0.08854655
0.08242057
0.08242057
0.07667073
0.07667073
0.07129108
0.07129108
0.06627027
0.06627027
0.06159326
0.06159326
0.05724269
0.05724269
0.05319983
0.05319983
0.04944536
0.04944536
0.0459599
0.0459599
0.04272438
0.04272438
0.03972032
0.03972032
0.03692998
0.03692998
0.03433651
0.03433651
0.03192394
0.03192394
0.02967728
0.02967728
0.02758252
0.02758252
0.02562658
0.02562658
0.02379737
0.02379737
0.02208377
0.02208377
0.02047565
0.02047565
0.01896389
0.01896389
0.01754039
0.01754039
0.01619811
0.01619811
0.01493104
0.01493104
0.01373415
0.01373415
0.01260335
0.01260335
0.01153534
0.01153534
0.01052759
0.01052759
0.009578163
0.009578163
0.008685704
0.008685704
0.007849299
0.007849299
0.007068399
0.007068399
0.006342706
0.006342706
0.005672044
0.005672044
0.0050562
0.0050562
0.004495175
0.004495174
0.003989493
0.003989493
0.003540157
0.003540157
0.003148455
0.003148455
0.002815808
0.002815808
0.002543723
0.002543723
0.002333932
0.002333932
0.002188929
0.002188929
0.002112739
0.002112739
)
;

boundaryField
{
    leftandright
    {
        type            cyclic;
        value           nonuniform List<scalar> 
150
(
0.1761367
0.1538228
0.1362427
0.1231237
0.1142659
0.1094859
0.1085626
0.1112012
0.1170339
0.1256443
0.1359395
0.146507
0.1562547
0.1643874
0.1704052
0.1740764
0.1753917
0.1745081
0.1716911
0.1672644
0.1615686
0.1549325
0.1476537
0.1399892
0.1321517
0.1243111
0.1165977
0.1091079
0.1019095
0.09504693
0.08854655
0.08242057
0.07667073
0.07129108
0.06627027
0.06159326
0.05724269
0.05319983
0.04944536
0.0459599
0.04272438
0.03972032
0.03692998
0.03433651
0.03192394
0.02967728
0.02758252
0.02562658
0.02379737
0.02208377
0.02047565
0.01896389
0.01754039
0.01619811
0.01493104
0.01373415
0.01260335
0.01153534
0.01052759
0.009578163
0.008685704
0.007849299
0.007068399
0.006342706
0.005672044
0.0050562
0.004495174
0.003989493
0.003540157
0.003148455
0.002815808
0.002543723
0.002333932
0.002188929
0.002112739
0.1761367
0.1538228
0.1362427
0.1231237
0.1142659
0.1094859
0.1085626
0.1112012
0.1170339
0.1256443
0.1359395
0.146507
0.1562547
0.1643874
0.1704052
0.1740764
0.1753917
0.1745081
0.1716911
0.1672644
0.1615686
0.1549325
0.1476537
0.1399892
0.1321517
0.1243111
0.1165977
0.1091079
0.1019095
0.09504693
0.08854655
0.08242057
0.07667073
0.07129108
0.06627027
0.06159326
0.05724269
0.05319983
0.04944536
0.0459599
0.04272438
0.03972032
0.03692998
0.03433651
0.03192394
0.02967728
0.02758252
0.02562658
0.02379737
0.02208377
0.02047565
0.01896389
0.01754039
0.01619811
0.01493104
0.01373415
0.01260335
0.01153534
0.01052759
0.009578163
0.008685704
0.007849299
0.007068399
0.006342706
0.005672044
0.0050562
0.004495174
0.003989493
0.003540157
0.003148455
0.002815808
0.002543723
0.002333932
0.002188929
0.002112739
)
;
    }
    wall
    {
        type            calculated;
        value           nonuniform List<scalar> 2(0.1901959 0.1901959);
    }
    frontAndBack
    {
        type            empty;
    }
    middle
    {
        type            symmetryPlane;
        value           nonuniform List<scalar> 2(0.002112739 0.002112739);
    }
}


// ************************************************************************* //
