/*--------------------------------*- C++ -*----------------------------------*\
| =========                 |                                                 |
| \\      /  F ield         | foam-extend: Open Source CFD                    |
|  \\    /   O peration     | Version:     4.0                                |
|   \\  /    A nd           | Web:         http://www.foam-extend.org         |
|    \\/     M anipulation  |                                                 |
\*---------------------------------------------------------------------------*/
FoamFile
{
    version     2.0;
    format      ascii;
    class       volScalarField;
    location    "100";
    object      EtauP;
}
// * * * * * * * * * * * * * * * * * * * * * * * * * * * * * * * * * * * * * //

dimensions      [0 2 -4 0 0 0 0];

internalField   nonuniform List<scalar> 
150
(
0.0008022082
0.000802195
0.02276167
0.02276132
0.107656
0.1076542
0.3071155
0.3071112
0.6732539
0.6732474
1.249522
1.249515
2.064099
2.064093
3.12856
3.128556
4.428081
4.428081
5.890346
5.890349
7.407786
7.407792
8.911675
8.911685
10.36327
10.36328
11.72311
11.72312
12.96167
12.96168
14.05944
14.05946
15.0057
15.00572
15.79652
15.79654
16.43258
16.43261
16.9175
16.91752
17.25651
17.25653
17.45583
17.45585
17.52235
17.52237
17.46359
17.46361
17.28775
17.28776
17.00379
17.0038
16.62141
16.62142
16.15101
16.15102
15.60348
15.60349
14.99002
14.99003
14.32192
14.32193
13.61029
13.6103
12.86575
12.86576
12.09827
12.09827
11.31703
11.31703
10.53039
10.53039
9.745838
9.745841
8.970004
8.970006
8.208684
8.208687
7.466906
7.466908
6.74898
6.748982
6.058582
6.058584
5.398837
5.398841
4.772419
4.77242
4.181633
4.181636
3.628532
3.628533
3.114998
3.115001
2.64283
2.642833
2.213757
2.213758
1.829362
1.829364
1.490868
1.49087
1.198738
1.19874
0.9521948
0.9521962
0.7488533
0.7488545
0.5846886
0.5846894
0.4544526
0.454453
0.3523856
0.3523859
0.2729294
0.2729295
0.2112073
0.2112074
0.163218
0.163218
0.1258163
0.1258164
0.09659122
0.09659122
0.07371307
0.07371312
0.05580204
0.05580204
0.04180058
0.04180058
0.0308662
0.0308662
0.02238494
0.02238495
0.01585322
0.01585323
0.01089648
0.01089649
0.007146868
0.007146871
0.004514925
0.004514917
0.002356274
0.002356266
0.001709754
0.001709755
-0.0002715167
-0.0002715157
0.0004367842
0.0004367833
)
;

boundaryField
{
    leftandright
    {
        type            cyclic;
        value           nonuniform List<scalar> 
150
(
0.0008022016
0.02276149
0.1076551
0.3071134
0.6732507
1.249519
2.064096
3.128558
4.428081
5.890347
7.407789
8.91168
10.36327
11.72311
12.96168
14.05945
15.00571
15.79653
16.4326
16.91751
17.25652
17.45584
17.52236
17.4636
17.28776
17.00379
16.62142
16.15102
15.60349
14.99002
14.32193
13.6103
12.86576
12.09827
11.31703
10.53039
9.745839
8.970005
8.208686
7.466907
6.748981
6.058583
5.398839
4.772419
4.181635
3.628532
3.114999
2.642832
2.213757
1.829363
1.490869
1.198739
0.9521955
0.7488539
0.584689
0.4544528
0.3523857
0.2729294
0.2112074
0.163218
0.1258163
0.09659122
0.0737131
0.05580204
0.04180058
0.0308662
0.02238494
0.01585322
0.01089649
0.00714687
0.004514921
0.00235627
0.001709754
-0.0002715162
0.0004367838
0.0008022016
0.02276149
0.1076551
0.3071134
0.6732507
1.249519
2.064096
3.128558
4.428081
5.890347
7.407789
8.91168
10.36327
11.72311
12.96168
14.05945
15.00571
15.79653
16.4326
16.91751
17.25652
17.45584
17.52236
17.4636
17.28776
17.00379
16.62142
16.15102
15.60349
14.99002
14.32193
13.6103
12.86576
12.09827
11.31703
10.53039
9.745839
8.970005
8.208686
7.466907
6.748981
6.058583
5.398839
4.772419
4.181635
3.628532
3.114999
2.642832
2.213757
1.829363
1.490869
1.198739
0.9521955
0.7488539
0.584689
0.4544528
0.3523857
0.2729294
0.2112074
0.163218
0.1258163
0.09659122
0.0737131
0.05580204
0.04180058
0.0308662
0.02238494
0.01585322
0.01089649
0.00714687
0.004514921
0.00235627
0.001709754
-0.0002715162
0.0004367838
)
;
    }
    wall
    {
        type            calculated;
        value           nonuniform List<scalar> 2(2.907817e-08 2.907768e-08);
    }
    frontAndBack
    {
        type            empty;
    }
    middle
    {
        type            symmetryPlane;
        value           nonuniform List<scalar> 2(0.0004367842 0.0004367833);
    }
}


// ************************************************************************* //
