/*--------------------------------*- C++ -*----------------------------------*\
| =========                 |                                                 |
| \\      /  F ield         | foam-extend: Open Source CFD                    |
|  \\    /   O peration     | Version:     4.0                                |
|   \\  /    A nd           | Web:         http://www.foam-extend.org         |
|    \\/     M anipulation  |                                                 |
\*---------------------------------------------------------------------------*/
FoamFile
{
    version     2.0;
    format      ascii;
    class       volScalarField;
    location    "100";
    object      eVyy;
}
// * * * * * * * * * * * * * * * * * * * * * * * * * * * * * * * * * * * * * //

dimensions      [0 2 -3 0 0 0 0];

internalField   nonuniform List<scalar> 
150
(
4.963833e-10
4.963751e-10
1.167205e-07
1.167187e-07
1.684863e-06
1.684835e-06
9.906823e-06
9.906685e-06
3.627636e-05
3.627602e-05
9.835328e-05
9.835275e-05
0.000215978
0.0002159774
0.0004060246
0.0004060242
0.0006772179
0.0006772179
0.001118902
0.001118903
0.001788836
0.001788838
0.002638948
0.002638951
0.00368133
0.003681336
0.004929886
0.004929893
0.006401722
0.006401733
0.008116342
0.008116355
0.01009456
0.01009457
0.01235708
0.0123571
0.01492284
0.01492287
0.01780699
0.01780701
0.02101888
0.0210189
0.02456011
0.02456014
0.02842285
0.02842288
0.03258858
0.03258862
0.03702741
0.03702744
0.04169803
0.04169807
0.04654827
0.04654832
0.05151627
0.05151632
0.05653209
0.05653213
0.06151972
0.06151978
0.0663996
0.06639966
0.07109026
0.07109031
0.07550957
0.07550961
0.07957607
0.07957611
0.08321034
0.08321037
0.08633638
0.08633642
0.08888305
0.08888308
0.09078539
0.09078542
0.09198599
0.09198603
0.09243656
0.09243659
0.09209936
0.09209938
0.09094879
0.09094882
0.08897332
0.08897338
0.0861777
0.08617773
0.08258534
0.08258541
0.07824159
0.07824161
0.07321734
0.07321741
0.06761324
0.0676133
0.06156297
0.06156299
0.05523437
0.05523443
0.04882498
0.04882505
0.04254814
0.0425482
0.03660927
0.03660932
0.03117646
0.03117651
0.02635605
0.02635609
0.02218391
0.02218394
0.01863538
0.01863539
0.01564673
0.01564673
0.01313768
0.01313768
0.01102775
0.01102775
0.009244992
0.009244997
0.007729212
0.007729211
0.006431751
0.006431755
0.005314753
0.005314753
0.004348188
0.004348188
0.003505572
0.003505572
0.002774604
0.002774605
0.002143622
0.002143623
0.001605841
0.001605842
0.001145563
0.001145563
0.0007839526
0.0007839514
0.0004401336
0.0004401321
0.0003398625
0.0003398626
-5.654664e-05
-5.654645e-05
9.334734e-05
9.334713e-05
)
;

boundaryField
{
    leftandright
    {
        type            cyclic;
        value           nonuniform List<scalar> 
150
(
4.963792e-10
1.167196e-07
1.684849e-06
9.906754e-06
3.627619e-05
9.835302e-05
0.0002159777
0.0004060244
0.0006772179
0.001118903
0.001788837
0.00263895
0.003681333
0.004929889
0.006401727
0.008116348
0.01009456
0.01235709
0.01492285
0.017807
0.02101889
0.02456013
0.02842287
0.0325886
0.03702743
0.04169805
0.0465483
0.05151629
0.05653211
0.06151975
0.06639963
0.07109029
0.07550959
0.07957609
0.08321035
0.0863364
0.08888306
0.0907854
0.09198601
0.09243658
0.09209937
0.0909488
0.08897335
0.08617772
0.08258537
0.0782416
0.07321738
0.06761327
0.06156298
0.0552344
0.04882501
0.04254817
0.03660929
0.03117648
0.02635607
0.02218393
0.01863538
0.01564673
0.01313768
0.01102775
0.009244995
0.007729211
0.006431753
0.005314753
0.004348188
0.003505572
0.002774605
0.002143622
0.001605842
0.001145563
0.000783952
0.0004401328
0.0003398625
-5.654655e-05
9.334724e-05
4.963792e-10
1.167196e-07
1.684849e-06
9.906754e-06
3.627619e-05
9.835302e-05
0.0002159777
0.0004060244
0.0006772179
0.001118903
0.001788837
0.00263895
0.003681333
0.004929889
0.006401727
0.008116348
0.01009456
0.01235709
0.01492285
0.017807
0.02101889
0.02456013
0.02842287
0.0325886
0.03702743
0.04169805
0.0465483
0.05151629
0.05653211
0.06151975
0.06639963
0.07109029
0.07550959
0.07957609
0.08321035
0.0863364
0.08888306
0.0907854
0.09198601
0.09243658
0.09209937
0.0909488
0.08897335
0.08617772
0.08258537
0.0782416
0.07321738
0.06761327
0.06156298
0.0552344
0.04882501
0.04254817
0.03660929
0.03117648
0.02635607
0.02218393
0.01863538
0.01564673
0.01313768
0.01102775
0.009244995
0.007729211
0.006431753
0.005314753
0.004348188
0.003505572
0.002774605
0.002143622
0.001605842
0.001145563
0.000783952
0.0004401328
0.0003398625
-5.654655e-05
9.334724e-05
)
;
    }
    wall
    {
        type            calculated;
        value           nonuniform List<scalar> 2(4.499761e-10 4.499686e-10);
    }
    frontAndBack
    {
        type            empty;
    }
    middle
    {
        type            symmetryPlane;
        value           nonuniform List<scalar> 2(9.334734e-05 9.334713e-05);
    }
}


// ************************************************************************* //
