/*--------------------------------*- C++ -*----------------------------------*\
| =========                 |                                                 |
| \\      /  F ield         | foam-extend: Open Source CFD                    |
|  \\    /   O peration     | Version:     4.0                                |
|   \\  /    A nd           | Web:         http://www.foam-extend.org         |
|    \\/     M anipulation  |                                                 |
\*---------------------------------------------------------------------------*/
FoamFile
{
    version     2.0;
    format      ascii;
    class       volScalarField;
    location    "100";
    object      f;
}
// * * * * * * * * * * * * * * * * * * * * * * * * * * * * * * * * * * * * * //

dimensions      [0 0 -1 0 0 0 0];

internalField   nonuniform List<scalar> 
150
(
0.05271509
0.05271509
0.1578873
0.1578873
0.2655831
0.2655831
0.3759597
0.3759597
0.4891018
0.4891018
0.6050021
0.6050021
0.7235367
0.7235368
0.844434
0.844434
0.9672373
0.9672373
1.091265
1.091265
1.216045
1.216045
1.341264
1.341264
1.466474
1.466474
1.591153
1.591153
1.71474
1.71474
1.836662
1.836662
1.956358
1.956358
2.073291
2.073291
2.186957
2.186957
2.296892
2.296892
2.402674
2.402674
2.503923
2.503923
2.600296
2.600296
2.69149
2.69149
2.777234
2.777235
2.857288
2.857288
2.931434
2.931434
2.999481
2.999481
3.061254
3.061254
3.116593
3.116593
3.165609
3.165609
3.208616
3.208616
3.245902
3.245902
3.277731
3.277731
3.304347
3.304347
3.325973
3.325973
3.34282
3.34282
3.35508
3.35508
3.362936
3.362936
3.366557
3.366557
3.366102
3.366102
3.361721
3.361721
3.353556
3.353556
3.341741
3.341741
3.326404
3.326404
3.307665
3.307665
3.285639
3.285639
3.260439
3.260439
3.23217
3.23217
3.200938
3.200938
3.166843
3.166843
3.129989
3.129989
3.090476
3.090476
3.048411
3.048411
3.003902
3.003902
2.957066
2.957066
2.908026
2.908026
2.856916
2.856916
2.803884
2.803884
2.749094
2.749094
2.692735
2.692735
2.635024
2.635024
2.576221
2.576221
2.516644
2.516644
2.456687
2.456687
2.396851
2.396851
2.337785
2.337785
2.280294
2.280294
2.225336
2.225336
2.174014
2.174014
2.127554
2.127554
2.087294
2.087294
2.054667
2.054667
2.031204
2.031204
2.01856
2.01856
)
;

boundaryField
{
    leftandright
    {
        type            cyclic;
        value           nonuniform List<scalar> 
150
(
0.05271509
0.1578873
0.2655831
0.3759597
0.4891018
0.6050021
0.7235367
0.844434
0.9672373
1.091265
1.216045
1.341264
1.466474
1.591153
1.71474
1.836662
1.956358
2.073291
2.186957
2.296892
2.402674
2.503923
2.600296
2.69149
2.777235
2.857288
2.931434
2.999481
3.061254
3.116593
3.165609
3.208616
3.245902
3.277731
3.304347
3.325973
3.34282
3.35508
3.362936
3.366557
3.366102
3.361721
3.353556
3.341741
3.326404
3.307665
3.285639
3.260439
3.23217
3.200938
3.166843
3.129989
3.090476
3.048411
3.003902
2.957066
2.908026
2.856916
2.803884
2.749094
2.692735
2.635024
2.576221
2.516644
2.456687
2.396851
2.337785
2.280294
2.225336
2.174014
2.127554
2.087294
2.054667
2.031204
2.01856
0.05271509
0.1578873
0.2655831
0.3759597
0.4891018
0.6050021
0.7235367
0.844434
0.9672373
1.091265
1.216045
1.341264
1.466474
1.591153
1.71474
1.836662
1.956358
2.073291
2.186957
2.296892
2.402674
2.503923
2.600296
2.69149
2.777235
2.857288
2.931434
2.999481
3.061254
3.116593
3.165609
3.208616
3.245902
3.277731
3.304347
3.325973
3.34282
3.35508
3.362936
3.366557
3.366102
3.361721
3.353556
3.341741
3.326404
3.307665
3.285639
3.260439
3.23217
3.200938
3.166843
3.129989
3.090476
3.048411
3.003902
2.957066
2.908026
2.856916
2.803884
2.749094
2.692735
2.635024
2.576221
2.516644
2.456687
2.396851
2.337785
2.280294
2.225336
2.174014
2.127554
2.087294
2.054667
2.031204
2.01856
)
;
    }
    wall
    {
        type            fixedValue;
        value           uniform 1e-10;
    }
    frontAndBack
    {
        type            empty;
    }
    middle
    {
        type            symmetryPlane;
        value           nonuniform List<scalar> 2(2.01856 2.01856);
    }
}


// ************************************************************************* //
