/*--------------------------------*- C++ -*----------------------------------*\
| =========                 |                                                 |
| \\      /  F ield         | foam-extend: Open Source CFD                    |
|  \\    /   O peration     | Version:     4.0                                |
|   \\  /    A nd           | Web:         http://www.foam-extend.org         |
|    \\/     M anipulation  |                                                 |
\*---------------------------------------------------------------------------*/
FoamFile
{
    version     2.0;
    format      ascii;
    class       volScalarField;
    location    "100";
    object      fp;
}
// * * * * * * * * * * * * * * * * * * * * * * * * * * * * * * * * * * * * * //

dimensions      [0 0 0 0 0 0 0];

internalField   nonuniform List<scalar> 
150
(
2.240129
2.240148
2.238741
2.238759
2.236025
2.236029
2.231469
2.231465
2.224335
2.224331
2.214006
2.214003
2.200225
2.200224
2.182898
2.182897
2.160837
2.160837
2.131818
2.131818
2.095549
2.095549
2.05468
2.054681
2.012102
2.012102
1.969405
1.969405
1.927501
1.927501
1.886934
1.886934
1.848026
1.848026
1.810944
1.810944
1.775732
1.775733
1.742347
1.742347
1.710678
1.710678
1.680576
1.680576
1.651873
1.651873
1.624399
1.624399
1.597992
1.597992
1.572505
1.572505
1.547812
1.547812
1.523806
1.523806
1.500399
1.500399
1.47752
1.47752
1.45511
1.45511
1.433124
1.433124
1.411524
1.411524
1.390278
1.390278
1.369361
1.369361
1.348752
1.348752
1.328431
1.328431
1.308384
1.308384
1.288599
1.288599
1.269069
1.269069
1.249791
1.249791
1.23077
1.23077
1.212017
1.212017
1.193555
1.193555
1.175422
1.175422
1.157672
1.157672
1.140383
1.140383
1.123662
1.123662
1.107648
1.107648
1.092512
1.092512
1.078447
1.078447
1.065648
1.065648
1.054277
1.054277
1.044429
1.044429
1.036103
1.036103
1.029205
1.029205
1.023573
1.023573
1.019014
1.019014
1.015334
1.015334
1.012361
1.012361
1.009952
1.009952
1.007992
1.007992
1.00639
1.00639
1.005078
1.005078
1.004001
1.004001
1.003115
1.003115
1.002387
1.002387
1.00179
1.00179
1.001304
1.001304
1.000906
1.000906
1.000605
1.000605
1.000334
1.000334
1.000251
1.000251
1
1
1.000067
1.000067
)
;

boundaryField
{
    leftandright
    {
        type            cyclic;
        value           nonuniform List<scalar> 
150
(
2.240139
2.23875
2.236027
2.231467
2.224333
2.214005
2.200225
2.182897
2.160837
2.131818
2.095549
2.05468
2.012102
1.969405
1.927501
1.886934
1.848026
1.810944
1.775733
1.742347
1.710678
1.680576
1.651873
1.624399
1.597992
1.572505
1.547812
1.523806
1.500399
1.47752
1.45511
1.433124
1.411524
1.390278
1.369361
1.348752
1.328431
1.308384
1.288599
1.269069
1.249791
1.23077
1.212017
1.193555
1.175422
1.157672
1.140383
1.123662
1.107648
1.092512
1.078447
1.065648
1.054277
1.044429
1.036103
1.029205
1.023573
1.019014
1.015334
1.012361
1.009952
1.007992
1.00639
1.005078
1.004001
1.003115
1.002387
1.00179
1.001304
1.000906
1.000605
1.000334
1.000251
1
1.000067
2.240139
2.23875
2.236027
2.231467
2.224333
2.214005
2.200225
2.182897
2.160837
2.131818
2.095549
2.05468
2.012102
1.969405
1.927501
1.886934
1.848026
1.810944
1.775733
1.742347
1.710678
1.680576
1.651873
1.624399
1.597992
1.572505
1.547812
1.523806
1.500399
1.47752
1.45511
1.433124
1.411524
1.390278
1.369361
1.348752
1.328431
1.308384
1.288599
1.269069
1.249791
1.23077
1.212017
1.193555
1.175422
1.157672
1.140383
1.123662
1.107648
1.092512
1.078447
1.065648
1.054277
1.044429
1.036103
1.029205
1.023573
1.019014
1.015334
1.012361
1.009952
1.007992
1.00639
1.005078
1.004001
1.003115
1.002387
1.00179
1.001304
1.000906
1.000605
1.000334
1.000251
1
1.000067
)
;
    }
    wall
    {
        type            calculated;
        value           nonuniform List<scalar> 2(2.240129 2.240148);
    }
    frontAndBack
    {
        type            empty;
    }
    middle
    {
        type            symmetryPlane;
        value           nonuniform List<scalar> 2(1.000067 1.000067);
    }
}


// ************************************************************************* //
