/*--------------------------------*- C++ -*----------------------------------*\
| =========                 |                                                 |
| \\      /  F ield         | foam-extend: Open Source CFD                    |
|  \\    /   O peration     | Version:     4.0                                |
|   \\  /    A nd           | Web:         http://www.foam-extend.org         |
|    \\/     M anipulation  |                                                 |
\*---------------------------------------------------------------------------*/
FoamFile
{
    version     2.0;
    format      ascii;
    class       volScalarField;
    location    "100";
    object      k;
}
// * * * * * * * * * * * * * * * * * * * * * * * * * * * * * * * * * * * * * //

dimensions      [0 2 -2 0 0 0 0];

internalField   nonuniform List<scalar> 
150
(
0.006391706
0.006391707
0.06805896
0.06805897
0.1796068
0.1796068
0.3419494
0.3419495
0.5557406
0.5557406
0.8206884
0.8206885
1.134929
1.134929
1.494785
1.494786
1.895088
1.895088
2.327992
2.327993
2.778432
2.778432
3.227893
3.227894
3.660645
3.660645
4.063554
4.063555
4.426803
4.426804
4.744049
4.74405
5.012178
5.012178
5.230802
5.230802
5.40165
5.40165
5.52794
5.52794
5.613824
5.613824
5.663918
5.663918
5.682952
5.682952
5.675513
5.675513
5.645881
5.645881
5.597933
5.597933
5.535103
5.535103
5.460373
5.460373
5.376293
5.376294
5.285017
5.285017
5.188337
5.188337
5.087736
5.087736
4.984421
4.984422
4.879371
4.879372
4.773366
4.773366
4.667018
4.667018
4.560799
4.560799
4.455064
4.455064
4.350065
4.350065
4.245974
4.245974
4.142887
4.142887
4.040842
4.040842
3.939824
3.939824
3.839773
3.839773
3.740592
3.740592
3.642151
3.642151
3.544293
3.544293
3.44684
3.44684
3.349597
3.349597
3.252363
3.252363
3.154937
3.154937
3.05713
3.05713
2.958776
2.958776
2.859745
2.859745
2.759955
2.759955
2.659379
2.659379
2.558057
2.558057
2.456096
2.456096
2.353679
2.353679
2.251063
2.251063
2.14859
2.14859
2.046682
2.046682
1.945848
1.945848
1.84667
1.84667
1.749805
1.749805
1.655953
1.655953
1.565908
1.565908
1.480612
1.480612
1.401165
1.401165
1.328792
1.328792
1.264809
1.264809
1.210578
1.210578
1.167492
1.167492
1.137015
1.137015
1.120755
1.120755
)
;

boundaryField
{
    leftandright
    {
        type            cyclic;
        value           nonuniform List<scalar> 
150
(
0.006391706
0.06805896
0.1796068
0.3419495
0.5557406
0.8206885
1.134929
1.494786
1.895088
2.327992
2.778432
3.227894
3.660645
4.063554
4.426803
4.74405
5.012178
5.230802
5.40165
5.52794
5.613824
5.663918
5.682952
5.675513
5.645881
5.597933
5.535103
5.460373
5.376294
5.285017
5.188337
5.087736
4.984421
4.879372
4.773366
4.667018
4.560799
4.455064
4.350065
4.245974
4.142887
4.040842
3.939824
3.839773
3.740592
3.642151
3.544293
3.44684
3.349597
3.252363
3.154937
3.05713
2.958776
2.859745
2.759955
2.659379
2.558057
2.456096
2.353679
2.251063
2.14859
2.046682
1.945848
1.84667
1.749805
1.655953
1.565908
1.480612
1.401165
1.328792
1.264809
1.210578
1.167492
1.137015
1.120755
0.006391706
0.06805896
0.1796068
0.3419495
0.5557406
0.8206885
1.134929
1.494786
1.895088
2.327992
2.778432
3.227894
3.660645
4.063554
4.426803
4.74405
5.012178
5.230802
5.40165
5.52794
5.613824
5.663918
5.682952
5.675513
5.645881
5.597933
5.535103
5.460373
5.376294
5.285017
5.188337
5.087736
4.984421
4.879372
4.773366
4.667018
4.560799
4.455064
4.350065
4.245974
4.142887
4.040842
3.939824
3.839773
3.740592
3.642151
3.544293
3.44684
3.349597
3.252363
3.154937
3.05713
2.958776
2.859745
2.759955
2.659379
2.558057
2.456096
2.353679
2.251063
2.14859
2.046682
1.945848
1.84667
1.749805
1.655953
1.565908
1.480612
1.401165
1.328792
1.264809
1.210578
1.167492
1.137015
1.120755
)
;
    }
    wall
    {
        type            fixedValue;
        value           uniform 1e-10;
    }
    frontAndBack
    {
        type            empty;
    }
    middle
    {
        type            symmetryPlane;
        value           nonuniform List<scalar> 2(1.120755 1.120755);
    }
}


// ************************************************************************* //
