/*--------------------------------*- C++ -*----------------------------------*\
| =========                 |                                                 |
| \\      /  F ield         | foam-extend: Open Source CFD                    |
|  \\    /   O peration     | Version:     4.0                                |
|   \\  /    A nd           | Web:         http://www.foam-extend.org         |
|    \\/     M anipulation  |                                                 |
\*---------------------------------------------------------------------------*/
FoamFile
{
    version     2.0;
    format      ascii;
    class       volSymmTensorField;
    location    "100";
    object      N;
}
// * * * * * * * * * * * * * * * * * * * * * * * * * * * * * * * * * * * * * //

dimensions      [0 2 -2 0 0 0 0];

internalField   nonuniform List<symmTensor> 
150
(
(0.01245481 0 0 1.058409e-06 0 0.0003275406)
(0.01245482 0 0 1.05841e-06 0 0.0003275385)
(0.1325773 0 0 5.123982e-05 0 0.003489395)
(0.1325773 0 0 5.123983e-05 0 0.003489373)
(0.349689 0 0 0.0003071963 0 0.009217457)
(0.3496891 0 0 0.0003071963 0 0.009217446)
(0.660925 0 0 0.001004482 0 0.02196937)
(0.6609251 0 0 0.001004483 0 0.02196937)
(1.065938 0 0 0.002415041 0 0.04312775)
(1.065938 0 0 0.002415042 0 0.04312776)
(1.563046 0 0 0.004811994 0 0.07351837)
(1.563047 0 0 0.004811995 0 0.07351838)
(2.147542 2.658652e-18 0 0.008442831 0 0.1138731)
(2.147542 -2.658653e-18 0 0.008442833 0 0.1138731)
(2.811563 0 0 0.01351402 0 0.1644935)
(2.811564 0 0 0.01351402 0 0.1644936)
(3.544668 0 0 0.02018872 0 0.2253188)
(3.544668 -9.363901e-18 0 0.02018872 0 0.2253188)
(4.331709 0 0 0.02855533 0 0.2957204)
(4.331709 0 0 0.02855534 0 0.2957205)
(5.144224 0 0 0.03859161 0 0.3740485)
(5.144225 0 0 0.03859161 0 0.3740486)
(5.947422 -3.206844e-17 0 0.05022513 0 0.4581393)
(5.947423 3.206844e-17 0 0.05022514 0 0.4581393)
(6.712002 0 0 0.06337356 0 0.545914)
(6.712003 0 0 0.06337357 0 0.5459141)
(7.413872 3.966128e-17 0 0.07792493 0 0.6353116)
(7.413872 -3.966128e-17 0 0.07792495 0 0.6353117)
(8.035441 0 0 0.09374474 0 0.724421)
(8.035441 0 0 0.09374476 0 0.7244211)
(8.565842 -4.513998e-17 0 0.1106834 0 0.8115738)
(8.565842 0 0 0.1106834 0 0.8115739)
(9.000375 0 0 0.1285833 0 0.8953976)
(9.000375 0 0 0.1285833 0 0.8953977)
(9.339486 9.647951e-17 0 0.1472857 0 0.9748329)
(9.339486 0 0 0.1472857 0 0.974833)
(9.587542 0 0 0.1666351 0 1.049123)
(9.587542 0 0 0.1666351 0 1.049123)
(9.751614 -1.965453e-16 0 0.1864834 0 1.117783)
(9.751614 9.827264e-17 0 0.1864835 0 1.117783)
(9.840395 0 0 0.2066919 0 1.18056)
(9.840396 0 0 0.2066919 0 1.18056)
(9.863313 1.929776e-16 0 0.2271323 0 1.237391)
(9.863313 0 0 0.2271323 0 1.237391)
(9.829862 1.891198e-16 0 0.2476874 0 1.288355)
(9.829862 0 0 0.2476875 0 1.288355)
(9.749137 0 0 0.2682507 0 1.333638)
(9.749138 0 0 0.2682508 0 1.333638)
(9.629537 -1.784288e-16 0 0.2887259 0 1.373499)
(9.629537 0 0 0.2887259 0 1.373499)
(9.4786 -1.720121e-16 0 0.3090261 0 1.40824)
(9.4786 0 0 0.3090261 0 1.40824)
(9.302942 -3.302437e-16 0 0.3290736 0 1.438191)
(9.302942 0 0 0.3290737 0 1.438191)
(9.108259 0 0 0.3487992 0 1.463687)
(9.10826 0 0 0.3487992 0 1.463687)
(8.89938 0 0 0.368142 0 1.485065)
(8.89938 0 0 0.368142 0 1.485065)
(8.680334 0 0 0.3870496 0 1.50265)
(8.680334 0 0 0.3870497 0 1.50265)
(8.45444 2.710699e-16 0 0.4054789 0 1.516755)
(8.454441 -2.710699e-16 0 0.405479 0 1.516755)
(8.224401 2.562652e-16 0 0.4233942 0 1.527676)
(8.224401 0 0 0.4233942 0 1.527676)
(7.992394 -7.252101e-16 0 0.4407648 0 1.535684)
(7.992394 0 0 0.4407648 0 1.535684)
(7.760154 0 0 0.4575627 0 1.541027)
(7.760154 0 0 0.4575628 0 1.541027)
(7.529046 4.277015e-16 0 0.4737619 0 1.543923)
(7.529047 0 0 0.4737619 0 1.543923)
(7.300129 0 0 0.4893365 0 1.544569)
(7.30013 0 0 0.4893365 0 1.544569)
(7.074202 7.515977e-16 0 0.5042606 0 1.543135)
(7.074202 -3.757989e-16 0 0.5042607 0 1.543135)
(6.851852 0 0 0.5185079 0 1.539767)
(6.851852 0 0 0.518508 0 1.539767)
(6.633487 0 0 0.5320509 0 1.534593)
(6.633487 0 0 0.5320509 0 1.534593)
(6.41937 0 0 0.544861 0 1.527717)
(6.41937 0 0 0.544861 0 1.527717)
(6.209638 0 0 0.5569083 0 1.519228)
(6.209638 0 0 0.5569083 0 1.519228)
(6.004327 0 0 0.5681615 0 1.509195)
(6.004327 0 0 0.5681615 0 1.509195)
(5.803386 0 0 0.578588 0 1.497673)
(5.803386 0 0 0.5785881 0 1.497673)
(5.606691 -9.151223e-16 0 0.588154 0 1.484701)
(5.606691 0 0 0.588154 0 1.484701)
(5.414056 -4.241106e-16 0 0.5968245 0 1.470303)
(5.414056 0 0 0.5968245 0 1.470303)
(5.225244 0 0 0.6045638 0 1.454494)
(5.225244 0 0 0.6045638 0 1.454494)
(5.039976 0 0 0.6113355 0 1.437275)
(5.039976 0 0 0.6113355 0 1.437275)
(4.857938 0 0 0.6171035 0 1.418638)
(4.857938 0 0 0.6171035 0 1.418638)
(4.678795 6.179192e-16 0 0.6218319 0 1.398566)
(4.678795 0 0 0.6218319 0 1.398566)
(4.502199 5.688128e-16 0 0.6254865 0 1.37704)
(4.502199 -5.688128e-16 0 0.6254865 0 1.37704)
(4.327804 0 0 0.6280353 0 1.354034)
(4.327804 0 0 0.6280353 0 1.354034)
(4.155283 0 0 0.6294498 0 1.329526)
(4.155283 0 0 0.6294498 0 1.329526)
(3.984345 0 0 0.6297063 0 1.3035)
(3.984345 0 0 0.6297062 0 1.3035)
(3.814754 0 0 0.6287873 0 1.275948)
(3.814754 0 0 0.6287873 0 1.275948)
(3.646347 0 0 0.6266831 0 1.24688)
(3.646347 0 0 0.6266831 0 1.24688)
(3.479046 -6.654958e-16 0 0.6233921 0 1.216321)
(3.479046 6.654958e-16 0 0.623392 0 1.216321)
(3.312873 0 0 0.6189214 0 1.18432)
(3.312873 0 0 0.6189214 0 1.18432)
(3.147957 0 0 0.6132866 0 1.150949)
(3.147957 0 0 0.6132866 0 1.150949)
(2.984543 -4.927084e-16 0 0.6065094 0 1.116304)
(2.984543 4.927084e-16 0 0.6065094 0 1.116304)
(2.823004 0 0 0.598615 0 1.080506)
(2.823005 0 0 0.598615 0 1.080506)
(2.663854 0 0 0.5896264 0 1.0437)
(2.663854 0 0 0.5896264 0 1.0437)
(2.507759 0 0 0.5795564 0 1.006049)
(2.507759 0 0 0.5795564 0 1.006049)
(2.355562 -1.264741e-15 0 0.5683955 0 0.9677376)
(2.355562 0 0 0.5683955 0 0.9677376)
(2.208294 0 0 0.5560939 0 0.9289534)
(2.208294 -5.617232e-16 0 0.5560939 0 0.9289534)
(2.067194 0 0 0.5425364 0 0.8898789)
(2.067194 0 0 0.5425363 0 0.8898789)
(1.933734 0 0 0.5275056 0 0.850666)
(1.933734 0 0 0.5275056 0 0.850666)
(1.80861 0 0 0.5113557 0 0.8118498)
(1.80861 -7.79641e-16 0 0.5113557 0 0.8118498)
(1.692409 0 0 0.4946748 0 0.7741412)
(1.692409 0 0 0.4946748 0 0.7741412)
(1.585976 0 0 0.4780599 0 0.7382942)
(1.585976 0 0 0.4780599 0 0.7382942)
(1.490373 0 0 0.4621137 0 0.7050982)
(1.490373 0 0 0.4621137 0 0.7050982)
(1.406821 0 0 0.447434 0 0.6753627)
(1.406821 0 0 0.447434 0 0.6753627)
(1.336655 0 0 0.4346013 0 0.6498995)
(1.336655 0 0 0.4346013 0 0.6498995)
(1.281303 0 0 0.4241696 0 0.6295109)
(1.281303 0 0 0.4241696 0 0.6295109)
(1.24235 0 0 0.4166718 0 0.6150091)
(1.24235 0 0 0.4166717 0 0.6150091)
(1.221632 -6.777434e-16 0 0.4126321 0 0.6072452)
(1.221632 0 0 0.412632 0 0.6072452)
)
;

boundaryField
{
    leftandright
    {
        type            cyclic;
        value           nonuniform List<symmTensor> 
150
(
(0.01245481 0 0 1.05841e-06 0 0.0003275396)
(0.1325773 0 0 5.123982e-05 0 0.003489384)
(0.349689 0 0 0.0003071963 0 0.009217452)
(0.6609251 0 0 0.001004483 0 0.02196937)
(1.065938 0 0 0.002415042 0 0.04312775)
(1.563047 0 0 0.004811995 0 0.07351838)
(2.147542 -1.461969e-33 0 0.008442832 0 0.1138731)
(2.811563 0 0 0.01351402 0 0.1644935)
(3.544668 -4.68195e-18 0 0.02018872 0 0.2253188)
(4.331709 0 0 0.02855534 0 0.2957204)
(5.144225 0 0 0.03859161 0 0.3740485)
(5.947423 -2.513965e-33 0 0.05022513 0 0.4581393)
(6.712003 0 0 0.06337356 0 0.5459141)
(7.413872 1.030548e-32 0 0.07792494 0 0.6353117)
(8.035441 0 0 0.09374475 0 0.724421)
(8.565842 -2.256999e-17 0 0.1106834 0 0.8115738)
(9.000375 0 0 0.1285833 0 0.8953976)
(9.339486 4.823976e-17 0 0.1472857 0 0.974833)
(9.587542 0 0 0.1666351 0 1.049123)
(9.751614 -4.913632e-17 0 0.1864834 0 1.117783)
(9.840395 0 0 0.2066919 0 1.18056)
(9.863313 9.648883e-17 0 0.2271323 0 1.237391)
(9.829862 9.455991e-17 0 0.2476874 0 1.288355)
(9.749138 0 0 0.2682508 0 1.333638)
(9.629537 -8.921438e-17 0 0.2887259 0 1.373499)
(9.4786 -8.600603e-17 0 0.3090261 0 1.40824)
(9.302942 -1.651219e-16 0 0.3290736 0 1.438191)
(9.10826 0 0 0.3487992 0 1.463687)
(8.89938 0 0 0.368142 0 1.485065)
(8.680334 0 0 0.3870497 0 1.50265)
(8.454441 0 0 0.4054789 0 1.516755)
(8.224401 1.281326e-16 0 0.4233942 0 1.527676)
(7.992394 -3.626051e-16 0 0.4407648 0 1.535684)
(7.760154 0 0 0.4575628 0 1.541027)
(7.529047 2.138508e-16 0 0.4737619 0 1.543923)
(7.300129 0 0 0.4893365 0 1.544569)
(7.074202 1.878994e-16 0 0.5042607 0 1.543135)
(6.851852 0 0 0.5185079 0 1.539767)
(6.633487 0 0 0.5320509 0 1.534593)
(6.41937 0 0 0.544861 0 1.527717)
(6.209638 0 0 0.5569083 0 1.519228)
(6.004327 0 0 0.5681615 0 1.509195)
(5.803386 0 0 0.5785881 0 1.497673)
(5.606691 -4.575611e-16 0 0.588154 0 1.484701)
(5.414056 -2.120553e-16 0 0.5968245 0 1.470303)
(5.225244 0 0 0.6045638 0 1.454494)
(5.039976 0 0 0.6113355 0 1.437275)
(4.857938 0 0 0.6171035 0 1.418638)
(4.678795 3.089596e-16 0 0.6218319 0 1.398566)
(4.502199 6.299255e-31 0 0.6254865 0 1.37704)
(4.327804 0 0 0.6280353 0 1.354034)
(4.155283 0 0 0.6294498 0 1.329526)
(3.984345 0 0 0.6297063 0 1.3035)
(3.814754 0 0 0.6287873 0 1.275948)
(3.646347 0 0 0.6266831 0 1.24688)
(3.479046 -5.846729e-32 0 0.6233921 0 1.216321)
(3.312873 0 0 0.6189214 0 1.18432)
(3.147957 0 0 0.6132866 0 1.150949)
(2.984543 -1.005393e-31 0 0.6065094 0 1.116304)
(2.823005 0 0 0.598615 0 1.080506)
(2.663854 0 0 0.5896264 0 1.0437)
(2.507759 0 0 0.5795564 0 1.006049)
(2.355562 -6.323706e-16 0 0.5683955 0 0.9677376)
(2.208294 -2.808616e-16 0 0.5560939 0 0.9289534)
(2.067194 0 0 0.5425363 0 0.8898789)
(1.933734 0 0 0.5275056 0 0.850666)
(1.80861 -3.898205e-16 0 0.5113557 0 0.8118498)
(1.692409 0 0 0.4946748 0 0.7741412)
(1.585976 0 0 0.4780599 0 0.7382942)
(1.490373 0 0 0.4621137 0 0.7050982)
(1.406821 0 0 0.447434 0 0.6753627)
(1.336655 0 0 0.4346013 0 0.6498995)
(1.281303 0 0 0.4241696 0 0.6295109)
(1.24235 0 0 0.4166718 0 0.6150091)
(1.221632 -3.388717e-16 0 0.412632 0 0.6072452)
(0.01245481 0 0 1.05841e-06 0 0.0003275396)
(0.1325773 0 0 5.123982e-05 0 0.003489384)
(0.349689 0 0 0.0003071963 0 0.009217452)
(0.6609251 0 0 0.001004483 0 0.02196937)
(1.065938 0 0 0.002415042 0 0.04312775)
(1.563047 0 0 0.004811995 0 0.07351838)
(2.147542 -1.62441e-33 0 0.008442832 0 0.1138731)
(2.811563 0 0 0.01351402 0 0.1644935)
(3.544668 -4.68195e-18 0 0.02018872 0 0.2253188)
(4.331709 0 0 0.02855534 0 0.2957204)
(5.144225 0 0 0.03859161 0 0.3740485)
(5.947423 -2.513965e-33 0 0.05022513 0 0.4581393)
(6.712003 0 0 0.06337356 0 0.5459141)
(7.413872 1.030548e-32 0 0.07792494 0 0.6353117)
(8.035441 0 0 0.09374475 0 0.724421)
(8.565842 -2.256999e-17 0 0.1106834 0 0.8115738)
(9.000375 0 0 0.1285833 0 0.8953976)
(9.339486 4.823976e-17 0 0.1472857 0 0.974833)
(9.587542 0 0 0.1666351 0 1.049123)
(9.751614 -4.913632e-17 0 0.1864834 0 1.117783)
(9.840395 0 0 0.2066919 0 1.18056)
(9.863313 9.648883e-17 0 0.2271323 0 1.237391)
(9.829862 9.455991e-17 0 0.2476874 0 1.288355)
(9.749138 0 0 0.2682508 0 1.333638)
(9.629537 -8.921438e-17 0 0.2887259 0 1.373499)
(9.4786 -8.600603e-17 0 0.3090261 0 1.40824)
(9.302942 -1.651219e-16 0 0.3290736 0 1.438191)
(9.10826 0 0 0.3487992 0 1.463687)
(8.89938 0 0 0.368142 0 1.485065)
(8.680334 0 0 0.3870497 0 1.50265)
(8.454441 0 0 0.4054789 0 1.516755)
(8.224401 1.281326e-16 0 0.4233942 0 1.527676)
(7.992394 -3.626051e-16 0 0.4407648 0 1.535684)
(7.760154 0 0 0.4575628 0 1.541027)
(7.529047 2.138508e-16 0 0.4737619 0 1.543923)
(7.300129 0 0 0.4893365 0 1.544569)
(7.074202 1.878994e-16 0 0.5042607 0 1.543135)
(6.851852 0 0 0.5185079 0 1.539767)
(6.633487 0 0 0.5320509 0 1.534593)
(6.41937 0 0 0.544861 0 1.527717)
(6.209638 0 0 0.5569083 0 1.519228)
(6.004327 0 0 0.5681615 0 1.509195)
(5.803386 0 0 0.5785881 0 1.497673)
(5.606691 -4.575611e-16 0 0.588154 0 1.484701)
(5.414056 -2.120553e-16 0 0.5968245 0 1.470303)
(5.225244 0 0 0.6045638 0 1.454494)
(5.039976 0 0 0.6113355 0 1.437275)
(4.857938 0 0 0.6171035 0 1.418638)
(4.678795 3.089596e-16 0 0.6218319 0 1.398566)
(4.502199 6.299255e-31 0 0.6254865 0 1.37704)
(4.327804 0 0 0.6280353 0 1.354034)
(4.155283 0 0 0.6294498 0 1.329526)
(3.984345 0 0 0.6297063 0 1.3035)
(3.814754 0 0 0.6287873 0 1.275948)
(3.646347 0 0 0.6266831 0 1.24688)
(3.479046 -5.846729e-32 0 0.6233921 0 1.216321)
(3.312873 0 0 0.6189214 0 1.18432)
(3.147957 0 0 0.6132866 0 1.150949)
(2.984543 -1.005393e-31 0 0.6065094 0 1.116304)
(2.823005 0 0 0.598615 0 1.080506)
(2.663854 0 0 0.5896264 0 1.0437)
(2.507759 0 0 0.5795564 0 1.006049)
(2.355562 -6.323706e-16 0 0.5683955 0 0.9677376)
(2.208294 -2.808616e-16 0 0.5560939 0 0.9289534)
(2.067194 0 0 0.5425363 0 0.8898789)
(1.933734 0 0 0.5275056 0 0.850666)
(1.80861 -3.898205e-16 0 0.5113557 0 0.8118498)
(1.692409 0 0 0.4946748 0 0.7741412)
(1.585976 0 0 0.4780599 0 0.7382942)
(1.490373 0 0 0.4621137 0 0.7050982)
(1.406821 0 0 0.447434 0 0.6753627)
(1.336655 0 0 0.4346013 0 0.6498995)
(1.281303 0 0 0.4241696 0 0.6295109)
(1.24235 0 0 0.4166718 0 0.6150091)
(1.221632 -3.388717e-16 0 0.412632 0 0.6072452)
)
;
    }
    wall
    {
        type            calculated;
        value           uniform (3.333333e-11 0 0 1e-10 0 6.666667e-11);
    }
    frontAndBack
    {
        type            empty;
    }
    middle
    {
        type            symmetryPlane;
        value           nonuniform List<symmTensor> 2((1.221632 0 0 0.6072452 0 0.6072452) (1.221632 0 0 0.6072452 0 0.6072452));
    }
}


// ************************************************************************* //
