/*--------------------------------*- C++ -*----------------------------------*\
| =========                 |                                                 |
| \\      /  F ield         | foam-extend: Open Source CFD                    |
|  \\    /   O peration     | Version:     4.0                                |
|   \\  /    A nd           | Web:         http://www.foam-extend.org         |
|    \\/     M anipulation  |                                                 |
\*---------------------------------------------------------------------------*/
FoamFile
{
    version     2.0;
    format      ascii;
    class       volSymmTensorField;
    location    "100";
    object      NLT;
}
// * * * * * * * * * * * * * * * * * * * * * * * * * * * * * * * * * * * * * //

dimensions      [0 0 -1 0 0 0 0];

internalField   nonuniform List<symmTensor> 
150
(
(0.002058441 0 0 2.215586e-07 0 0)
(0.002058391 0 0 2.215532e-07 0 0)
(0.1064845 0 0 5.211013e-05 0 0)
(0.1064821 0 0 5.210894e-05 0 0)
(0.6770028 0 0 0.0007526567 0 0)
(0.6769905 0 0 0.0007526431 0 0)
(2.320667 0 0 0.00443105 0 0)
(2.320639 0 0 0.004430996 0 0)
(5.757371 0 0 0.0162626 0 0)
(5.757326 0 0 0.01626248 0 0)
(11.61153 0 0 0.04425371 0 0)
(11.61148 0 0 0.04425352 0 0)
(20.20255 -2.463402e-18 0 0.09768751 0 0)
(20.2025 2.463397e-18 0 0.0976873 0 0)
(31.46639 0 0 0.1849124 0 0)
(31.46636 0 0 0.1849122 0 0)
(44.94779 0 0 0.3112442 0 0)
(44.94779 1.420786e-17 0 0.3112442 0 0)
(65.30788 0 0 0.5206965 0 0)
(65.30791 0 0 0.5206967 0 0)
(93.70322 0 0 0.8459816 0 0)
(93.70329 0 0 0.8459824 0 0)
(125.7166 9.995785e-17 0 1.271475 0 0)
(125.7167 -9.995796e-17 0 1.271477 0 0)
(160.7766 0 0 1.809201 0 0)
(160.7768 0 0 1.809203 0 0)
(198.3489 -1.759234e-16 0 2.47237 0 0)
(198.3491 1.759236e-16 0 2.472373 0 0)
(238.0053 0 0 3.276096 0 0)
(238.0056 0 0 3.276101 0 0)
(279.3909 2.728788e-16 0 4.237002 0 0)
(279.3912 0 0 4.237008 0 0)
(322.1937 0 0 5.37265 0 0)
(322.1941 0 0 5.372657 0 0)
(366.1174 -7.812109e-16 0 6.70079 0 0)
(366.1179 0 0 6.700799 0 0)
(410.8564 0 0 8.238412 0 0)
(410.8568 0 0 8.238422 0 0)
(456.0759 2.110575e-15 0 10.00063 0 0)
(456.0764 -1.055289e-15 0 10.00064 0 0)
(501.3995 0 0 11.99947 0 0)
(501.4001 0 0 11.99948 0 0)
(546.4033 -2.72059e-15 0 14.24258 0 0)
(546.4038 0 0 14.24259 0 0)
(590.6183 -3.040711e-15 0 16.73209 0 0)
(590.6188 0 0 16.73211 0 0)
(633.5396 0 0 19.46359 0 0)
(633.5401 0 0 19.46361 0 0)
(674.6396 3.688632e-15 0 22.42535 0 0)
(674.64 0 0 22.42537 0 0)
(713.3854 4.005729e-15 0 25.59794 0 0)
(713.3857 0 0 25.59795 0 0)
(749.2554 8.6212e-15 0 28.95413 0 0)
(749.256 0 0 28.95416 0 0)
(781.7576 0 0 32.45926 0 0)
(781.7582 0 0 32.45929 0 0)
(810.4426 0 0 36.07182 0 0)
(810.443 0 0 36.07184 0 0)
(834.9157 0 0 39.74443 0 0)
(834.9162 0 0 39.74446 0 0)
(854.8471 -1.059257e-14 0 43.42521 0 0)
(854.8477 1.059257e-14 0 43.42524 0 0)
(869.9733 -1.092068e-14 0 47.05867 0 0)
(869.9739 0 0 47.0587 0 0)
(880.0934 3.350548e-14 0 50.58645 0 0)
(880.0937 0 0 50.58647 0 0)
(885.067 0 0 53.94812 0 0)
(885.0673 0 0 53.94814 0 0)
(884.8128 -2.281348e-14 0 57.08212 0 0)
(884.813 0 0 57.08214 0 0)
(879.3041 0 0 59.92673 0 0)
(879.3043 0 0 59.92675 0 0)
(868.568 -4.515999e-14 0 62.42109 0 0)
(868.5683 2.258e-14 0 62.42111 0 0)
(852.6812 0 0 64.50621 0 0)
(852.6814 0 0 64.50623 0 0)
(831.7685 0 0 66.12615 0 0)
(831.7686 0 0 66.12616 0 0)
(806.0017 0 0 67.22916 0 0)
(806.0019 0 0 67.22918 0 0)
(775.5994 0 0 67.76906 0 0)
(775.5996 0 0 67.76907 0 0)
(740.8286 0 0 67.70661 0 0)
(740.8288 0 0 67.70663 0 0)
(702.008 0 0 67.01131 0 0)
(702.0085 0 0 67.01136 0 0)
(659.5163 6.702406e-14 0 65.66356 0 0)
(659.5164 0 0 65.66358 0 0)
(613.8001 3.090819e-14 0 63.65707 0 0)
(613.8005 0 0 63.65711 0 0)
(565.391 0 0 61.00233 0 0)
(565.3911 0 0 61.00234 0 0)
(514.9235 0 0 57.7306 0 0)
(514.9239 0 0 57.73064 0 0)
(463.1579 0 0 53.89883 0 0)
(463.1583 0 0 53.89888 0 0)
(410.9976 -3.94541e-14 0 49.59445 0 0)
(410.9977 0 0 49.59446 0 0)
(359.4913 -3.401185e-14 0 44.93872 0 0)
(359.4917 3.401189e-14 0 44.93877 0 0)
(309.8022 0 0 40.08586 0 0)
(309.8026 0 0 40.08591 0 0)
(263.1177 0 0 35.21362 0 0)
(263.1181 0 0 35.21367 0 0)
(220.505 0 0 30.50407 0 0)
(220.5053 0 0 30.50411 0 0)
(182.7406 0 0 26.1171 0 0)
(182.7409 0 0 26.11714 0 0)
(150.184 0 0 22.16578 0 0)
(150.1842 0 0 22.16581 0 0)
(122.7562 2.099329e-14 0 18.70414 0 0)
(122.7563 -2.099331e-14 0 18.70416 0 0)
(100.0321 0 0 15.73179 0 0)
(100.0322 0 0 15.7318 0 0)
(81.39249 0 0 13.21039 0 0)
(81.39252 0 0 13.2104 0 0)
(66.16723 1.071127e-14 0 11.08273 0 0)
(66.16726 -1.071128e-14 0 11.08273 0 0)
(53.73127 0 0 9.287534 0 0)
(53.73127 0 0 9.287534 0 0)
(43.54891 0 0 7.768086 0 0)
(43.54893 0 0 7.76809 0 0)
(35.18344 0 0 6.475851 0 0)
(35.18344 0 0 6.475851 0 0)
(28.2879 1.701032e-14 0 5.371008 0 0)
(28.28791 0 0 5.371011 0 0)
(22.59269 0 0 4.422217 0 0)
(22.59269 6.662192e-15 0 4.422217 0 0)
(17.8845 0 0 3.604371 0 0)
(17.8845 0 0 3.604371 0 0)
(13.98233 0 0 2.895156 0 0)
(13.98233 0 0 2.895157 0 0)
(10.757 0 0 2.283292 0 0)
(10.757 5.924072e-15 0 2.283293 0 0)
(8.095099 0 0 1.75798 0 0)
(8.095104 0 0 1.757981 0 0)
(5.918783 0 0 1.312619 0 0)
(5.918786 0 0 1.31262 0 0)
(4.129565 0 0 0.9334893 0 0)
(4.129566 0 0 0.9334896 0 0)
(2.770239 0 0 0.636993 0 0)
(2.770235 0 0 0.636992 0 0)
(1.528738 0 0 0.3567341 0 0)
(1.528733 0 0 0.3567329 0 0)
(1.163896 0 0 0.274861 0 0)
(1.163896 0 0 0.2748611 0 0)
(-0.1917196 -0 -0 -0.04566754 -0 -0)
(-0.191719 -0 -0 -0.04566739 -0 -0)
(0.3147155 2.622871e-16 0 0.07531541 0 0)
(0.3147148 0 0 0.07531525 0 0)
)
;

boundaryField
{
    leftandright
    {
        type            cyclic;
        value           nonuniform List<symmTensor> 
150
(
(0.002058416 0 0 2.215559e-07 0 0)
(0.1064833 0 0 5.210954e-05 0 0)
(0.6769967 0 0 0.0007526499 0 0)
(2.320653 0 0 0.004431023 0 0)
(5.757349 0 0 0.01626254 0 0)
(11.61151 0 0 0.04425361 0 0)
(20.20253 1.354601e-33 0 0.0976874 0 0)
(31.46638 0 0 0.1849123 0 0)
(44.94779 7.103929e-18 0 0.3112442 0 0)
(65.30789 0 0 0.5206966 0 0)
(93.70326 0 0 0.845982 0 0)
(125.7167 7.836075e-33 0 1.271476 0 0)
(160.7767 0 0 1.809202 0 0)
(198.349 -4.57115e-32 0 2.472372 0 0)
(238.0055 0 0 3.276099 0 0)
(279.391 1.364395e-16 0 4.237005 0 0)
(322.1939 0 0 5.372653 0 0)
(366.1176 -3.906057e-16 0 6.700794 0 0)
(410.8566 0 0 8.238417 0 0)
(456.0762 5.276441e-16 0 10.00064 0 0)
(501.3998 0 0 11.99947 0 0)
(546.4035 -1.360295e-15 0 14.24258 0 0)
(590.6186 -1.520356e-15 0 16.7321 0 0)
(633.5398 0 0 19.4636 0 0)
(674.6398 1.844316e-15 0 22.42536 0 0)
(713.3855 2.002865e-15 0 25.59795 0 0)
(749.2557 4.310602e-15 0 28.95415 0 0)
(781.7579 0 0 32.45928 0 0)
(810.4428 0 0 36.07183 0 0)
(834.916 0 0 39.74445 0 0)
(854.8474 0 0 43.42522 0 0)
(869.9736 -5.46034e-15 0 47.05869 0 0)
(880.0935 1.675274e-14 0 50.58646 0 0)
(885.0672 0 0 53.94813 0 0)
(884.8129 -1.140674e-14 0 57.08213 0 0)
(879.3042 0 0 59.92674 0 0)
(868.5681 -1.129e-14 0 62.4211 0 0)
(852.6813 0 0 64.50622 0 0)
(831.7686 0 0 66.12616 0 0)
(806.0018 0 0 67.22917 0 0)
(775.5995 0 0 67.76906 0 0)
(740.8287 0 0 67.70662 0 0)
(702.0083 0 0 67.01133 0 0)
(659.5164 3.351204e-14 0 65.66357 0 0)
(613.8003 1.54541e-14 0 63.65709 0 0)
(565.391 0 0 61.00233 0 0)
(514.9237 0 0 57.73062 0 0)
(463.1581 0 0 53.89885 0 0)
(410.9976 -1.972705e-14 0 49.59445 0 0)
(359.4915 -3.766607e-29 0 44.93875 0 0)
(309.8024 0 0 40.08589 0 0)
(263.1179 0 0 35.21364 0 0)
(220.5052 0 0 30.50409 0 0)
(182.7408 0 0 26.11712 0 0)
(150.1841 0 0 22.16579 0 0)
(122.7562 1.844371e-30 0 18.70415 0 0)
(100.0322 0 0 15.7318 0 0)
(81.3925 0 0 13.2104 0 0)
(66.16724 2.185683e-30 0 11.08273 0 0)
(53.73127 0 0 9.287534 0 0)
(43.54892 0 0 7.768088 0 0)
(35.18344 0 0 6.475851 0 0)
(28.2879 8.505161e-15 0 5.37101 0 0)
(22.59269 3.331096e-15 0 4.422217 0 0)
(17.8845 0 0 3.604371 0 0)
(13.98233 0 0 2.895156 0 0)
(10.757 2.962036e-15 0 2.283292 0 0)
(8.095102 0 0 1.75798 0 0)
(5.918784 0 0 1.31262 0 0)
(4.129565 0 0 0.9334895 0 0)
(2.770237 0 0 0.6369925 0 0)
(1.528735 0 0 0.3567335 0 0)
(1.163896 0 0 0.274861 0 0)
(-0.1917193 -0 -0 -0.04566747 -0 -0)
(0.3147152 1.311434e-16 0 0.07531533 0 0)
(0.002058416 0 0 2.215559e-07 0 0)
(0.1064833 0 0 5.210954e-05 0 0)
(0.6769967 0 0 0.0007526499 0 0)
(2.320653 0 0 0.004431023 0 0)
(5.757349 0 0 0.01626254 0 0)
(11.61151 0 0 0.04425361 0 0)
(20.20253 1.505113e-33 0 0.0976874 0 0)
(31.46638 0 0 0.1849123 0 0)
(44.94779 7.103929e-18 0 0.3112442 0 0)
(65.30789 0 0 0.5206966 0 0)
(93.70326 0 0 0.845982 0 0)
(125.7167 7.836075e-33 0 1.271476 0 0)
(160.7767 0 0 1.809202 0 0)
(198.349 -4.57115e-32 0 2.472372 0 0)
(238.0055 0 0 3.276099 0 0)
(279.391 1.364395e-16 0 4.237005 0 0)
(322.1939 0 0 5.372653 0 0)
(366.1176 -3.906057e-16 0 6.700794 0 0)
(410.8566 0 0 8.238417 0 0)
(456.0762 5.276441e-16 0 10.00064 0 0)
(501.3998 0 0 11.99947 0 0)
(546.4035 -1.360295e-15 0 14.24258 0 0)
(590.6186 -1.520356e-15 0 16.7321 0 0)
(633.5398 0 0 19.4636 0 0)
(674.6398 1.844316e-15 0 22.42536 0 0)
(713.3855 2.002865e-15 0 25.59795 0 0)
(749.2557 4.310602e-15 0 28.95415 0 0)
(781.7579 0 0 32.45928 0 0)
(810.4428 0 0 36.07183 0 0)
(834.916 0 0 39.74445 0 0)
(854.8474 0 0 43.42522 0 0)
(869.9736 -5.46034e-15 0 47.05869 0 0)
(880.0935 1.675274e-14 0 50.58646 0 0)
(885.0672 0 0 53.94813 0 0)
(884.8129 -1.140674e-14 0 57.08213 0 0)
(879.3042 0 0 59.92674 0 0)
(868.5681 -1.129e-14 0 62.4211 0 0)
(852.6813 0 0 64.50622 0 0)
(831.7686 0 0 66.12616 0 0)
(806.0018 0 0 67.22917 0 0)
(775.5995 0 0 67.76906 0 0)
(740.8287 0 0 67.70662 0 0)
(702.0083 0 0 67.01133 0 0)
(659.5164 3.351204e-14 0 65.66357 0 0)
(613.8003 1.54541e-14 0 63.65709 0 0)
(565.391 0 0 61.00233 0 0)
(514.9237 0 0 57.73062 0 0)
(463.1581 0 0 53.89885 0 0)
(410.9976 -1.972705e-14 0 49.59445 0 0)
(359.4915 -3.766607e-29 0 44.93875 0 0)
(309.8024 0 0 40.08589 0 0)
(263.1179 0 0 35.21364 0 0)
(220.5052 0 0 30.50409 0 0)
(182.7408 0 0 26.11712 0 0)
(150.1841 0 0 22.16579 0 0)
(122.7562 1.844371e-30 0 18.70415 0 0)
(100.0322 0 0 15.7318 0 0)
(81.3925 0 0 13.2104 0 0)
(66.16724 2.185683e-30 0 11.08273 0 0)
(53.73127 0 0 9.287534 0 0)
(43.54892 0 0 7.768088 0 0)
(35.18344 0 0 6.475851 0 0)
(28.2879 8.505161e-15 0 5.37101 0 0)
(22.59269 3.331096e-15 0 4.422217 0 0)
(17.8845 0 0 3.604371 0 0)
(13.98233 0 0 2.895156 0 0)
(10.757 2.962036e-15 0 2.283292 0 0)
(8.095102 0 0 1.75798 0 0)
(5.918784 0 0 1.31262 0 0)
(4.129565 0 0 0.9334895 0 0)
(2.770237 0 0 0.6369925 0 0)
(1.528735 0 0 0.3567335 0 0)
(1.163896 0 0 0.274861 0 0)
(-0.1917193 -0 -0 -0.04566747 -0 -0)
(0.3147152 1.311434e-16 0 0.07531533 0 0)
)
;
    }
    wall
    {
        type            calculated;
        value           nonuniform List<symmTensor> 2((1.872886e-07 0 0 1.217376e-07 0 0) (1.87284e-07 0 0 1.217346e-07 0 0));
    }
    frontAndBack
    {
        type            empty;
    }
    middle
    {
        type            symmetryPlane;
        value           nonuniform List<symmTensor> 2((0.3147155 0 0 0.07531541 0 0) (0.3147148 0 0 0.07531525 0 0));
    }
}


// ************************************************************************* //
