/*--------------------------------*- C++ -*----------------------------------*\
| =========                 |                                                 |
| \\      /  F ield         | foam-extend: Open Source CFD                    |
|  \\    /   O peration     | Version:     4.0                                |
|   \\  /    A nd           | Web:         http://www.foam-extend.org         |
|    \\/     M anipulation  |                                                 |
\*---------------------------------------------------------------------------*/
FoamFile
{
    version     2.0;
    format      ascii;
    class       volSymmTensorField;
    location    "100";
    object      NLTPlus;
}
// * * * * * * * * * * * * * * * * * * * * * * * * * * * * * * * * * * * * * //

dimensions      [0 2 -2 0 0 0 0];

internalField   nonuniform List<symmTensor> 
150
(
(5.211242e-06 0 0 5.609079e-10 0 0)
(5.211115e-06 0 0 5.608943e-10 0 0)
(0.0002695811 0 0 1.319244e-07 0 0)
(0.0002695749 0 0 1.319214e-07 0 0)
(0.001713931 0 0 1.90546e-06 0 0)
(0.0017139 0 0 1.905426e-06 0 0)
(0.005875107 0 0 1.121785e-05 0 0)
(0.005875034 0 0 1.121771e-05 0 0)
(0.01457562 0 0 4.117114e-05 0 0)
(0.01457551 0 0 4.117083e-05 0 0)
(0.02939628 0 0 0.0001120347 0 0)
(0.02939615 0 0 0.0001120342 0 0)
(0.0511457 -6.236462e-21 0 0.0002473101 0 0)
(0.05114558 6.236449e-21 0 0.0002473096 0 0)
(0.07966175 0 0 0.0004681326 0 0)
(0.07966168 0 0 0.0004681322 0 0)
(0.1137919 0 0 0.0007879599 0 0)
(0.1137919 3.596926e-20 0 0.0007879599 0 0)
(0.1653364 0 0 0.001318219 0 0)
(0.1653365 0 0 0.00131822 0 0)
(0.2372233 0 0 0.002141726 0 0)
(0.2372235 0 0 0.002141727 0 0)
(0.3182699 2.530578e-19 0 0.003218924 0 0)
(0.3182702 -2.530581e-19 0 0.003218928 0 0)
(0.4070294 0 0 0.004580255 0 0)
(0.4070299 0 0 0.004580261 0 0)
(0.5021491 -4.453757e-19 0 0.006259165 0 0)
(0.5021497 4.453763e-19 0 0.006259173 0 0)
(0.6025451 0 0 0.008293915 0 0)
(0.6025458 0 0 0.008293926 0 0)
(0.7073186 6.908325e-19 0 0.01072659 0 0)
(0.7073195 0 0 0.0107266 0 0)
(0.8156802 0 0 0.01360164 0 0)
(0.8156812 0 0 0.01360166 0 0)
(0.9268796 -1.977749e-18 0 0.01696402 0 0)
(0.9268807 0 0 0.01696405 0 0)
(1.040143 0 0 0.02085674 0 0)
(1.040144 0 0 0.02085676 0 0)
(1.154623 5.343228e-18 0 0.02531805 0 0)
(1.154624 -2.671617e-18 0 0.02531809 0 0)
(1.269366 0 0 0.0303784 0 0)
(1.269367 0 0 0.03037843 0 0)
(1.3833 -6.887569e-18 0 0.03605716 0 0)
(1.383301 0 0 0.03605719 0 0)
(1.495236 -7.698004e-18 0 0.04235973 0 0)
(1.495238 0 0 0.04235977 0 0)
(1.603898 0 0 0.04927491 0 0)
(1.603899 0 0 0.04927495 0 0)
(1.707948 9.338308e-18 0 0.05677304 0 0)
(1.707949 0 0 0.05677308 0 0)
(1.806039 1.014109e-17 0 0.06480491 0 0)
(1.80604 0 0 0.06480495 0 0)
(1.896849 2.182582e-17 0 0.07330161 0 0)
(1.896851 0 0 0.07330167 0 0)
(1.979133 0 0 0.08217535 0 0)
(1.979135 0 0 0.08217541 0 0)
(2.051753 0 0 0.09132105 0 0)
(2.051754 0 0 0.09132111 0 0)
(2.113711 0 0 0.1006188 0 0)
(2.113712 0 0 0.1006189 0 0)
(2.16417 -2.681662e-17 0 0.1099372 0 0)
(2.164171 2.681664e-17 0 0.1099373 0 0)
(2.202464 -2.764728e-17 0 0.1191359 0 0)
(2.202465 0 0 0.119136 0 0)
(2.228085 8.482401e-17 0 0.128067 0 0)
(2.228085 0 0 0.128067 0 0)
(2.240676 0 0 0.1365775 0 0)
(2.240677 0 0 0.1365776 0 0)
(2.240032 -5.775565e-17 0 0.1445117 0 0)
(2.240033 0 0 0.1445118 0 0)
(2.226086 0 0 0.1517132 0 0)
(2.226087 0 0 0.1517133 0 0)
(2.198906 -1.143291e-16 0 0.1580281 0 0)
(2.198907 5.716457e-17 0 0.1580281 0 0)
(2.158687 0 0 0.1633069 0 0)
(2.158687 0 0 0.1633069 0 0)
(2.105743 0 0 0.167408 0 0)
(2.105743 0 0 0.167408 0 0)
(2.040511 0 0 0.1702004 0 0)
(2.040511 0 0 0.1702005 0 0)
(1.963543 0 0 0.1715672 0 0)
(1.963543 0 0 0.1715673 0 0)
(1.875515 0 0 0.1714091 0 0)
(1.875516 0 0 0.1714092 0 0)
(1.777236 0 0 0.1696489 0 0)
(1.777237 0 0 0.169649 0 0)
(1.669662 1.696812e-16 0 0.1662369 0 0)
(1.669662 0 0 0.1662369 0 0)
(1.553924 7.824857e-17 0 0.1611571 0 0)
(1.553925 0 0 0.1611573 0 0)
(1.43137 0 0 0.1544363 0 0)
(1.43137 0 0 0.1544363 0 0)
(1.303604 0 0 0.1461534 0 0)
(1.303605 0 0 0.1461535 0 0)
(1.172552 0 0 0.1364527 0 0)
(1.172553 0 0 0.1364529 0 0)
(1.0405 -9.988378e-17 0 0.1255556 0 0)
(1.0405 0 0 0.1255556 0 0)
(0.9101046 -8.610595e-17 0 0.1137689 0 0)
(0.9101055 8.610604e-17 0 0.113769 0 0)
(0.7843093 0 0 0.1014832 0 0)
(0.7843103 0 0 0.1014833 0 0)
(0.6661208 0 0 0.0891484 0 0)
(0.6661217 0 0 0.08914852 0 0)
(0.5582405 0 0 0.07722549 0 0)
(0.5582413 0 0 0.0772256 0 0)
(0.4626345 0 0 0.06611924 0 0)
(0.4626352 0 0 0.06611934 0 0)
(0.3802126 0 0 0.05611589 0 0)
(0.3802131 0 0 0.05611596 0 0)
(0.3107751 5.314756e-17 0 0.04735224 0 0)
(0.3107754 -5.314762e-17 0 0.04735229 0 0)
(0.2532459 0 0 0.03982731 0 0)
(0.2532461 0 0 0.03982735 0 0)
(0.2060569 0 0 0.03344403 0 0)
(0.206057 0 0 0.03344404 0 0)
(0.167512 2.711715e-17 0 0.02805754 0 0)
(0.167512 -2.711716e-17 0 0.02805755 0 0)
(0.1360285 0 0 0.02351275 0 0)
(0.1360285 0 0 0.02351274 0 0)
(0.1102504 0 0 0.01966604 0 0)
(0.1102505 0 0 0.01966605 0 0)
(0.08907199 0 0 0.01639456 0 0)
(0.08907199 0 0 0.01639456 0 0)
(0.07161492 4.306409e-17 0 0.01359749 0 0)
(0.07161497 0 0 0.0135975 0 0)
(0.05719669 0 0 0.01119549 0 0)
(0.05719669 1.686631e-17 0 0.01119549 0 0)
(0.04527722 0 0 0.009124989 0 0)
(0.04527722 0 0 0.00912499 0 0)
(0.0353983 0 0 0.00732951 0 0)
(0.03539831 0 0 0.00732951 0 0)
(0.02723292 0 0 0.005780487 0 0)
(0.02723292 1.499765e-17 0 0.005780488 0 0)
(0.02049392 0 0 0.004450582 0 0)
(0.02049393 0 0 0.004450584 0 0)
(0.01498426 0 0 0.003323087 0 0)
(0.01498427 0 0 0.003323088 0 0)
(0.01045459 0 0 0.002363264 0 0)
(0.0104546 0 0 0.002363265 0 0)
(0.007013263 0 0 0.001612641 0 0)
(0.007013252 0 0 0.001612638 0 0)
(0.003870222 0 0 0.0009031242 0 0)
(0.00387021 0 0 0.0009031213 0 0)
(0.002946572 0 0 0.0006958507 0 0)
(0.002946573 0 0 0.0006958508 0 0)
(-0.0004853662 -0 -0 -0.000115614 -0 -0)
(-0.0004853645 -0 -0 -0.0001156136 -0 -0)
(0.0007967481 6.64018e-19 0 0.0001906719 0 0)
(0.0007967464 0 0 0.0001906715 0 0)
)
;

boundaryField
{
    leftandright
    {
        type            cyclic;
        value           nonuniform List<symmTensor> 
150
(
(5.211179e-06 0 0 5.609011e-10 0 0)
(0.000269578 0 0 1.319229e-07 0 0)
(0.001713916 0 0 1.905443e-06 0 0)
(0.005875071 0 0 1.121778e-05 0 0)
(0.01457557 0 0 4.117099e-05 0 0)
(0.02939622 0 0 0.0001120345 0 0)
(0.05114564 3.429371e-36 0 0.0002473099 0 0)
(0.07966171 0 0 0.0004681324 0 0)
(0.1137919 1.798463e-20 0 0.0007879599 0 0)
(0.1653364 0 0 0.001318219 0 0)
(0.2372234 0 0 0.002141726 0 0)
(0.31827 1.983816e-35 0 0.003218926 0 0)
(0.4070297 0 0 0.004580258 0 0)
(0.5021494 -1.157253e-34 0 0.006259169 0 0)
(0.6025455 0 0 0.008293921 0 0)
(0.7073191 3.454165e-19 0 0.01072659 0 0)
(0.8156807 0 0 0.01360165 0 0)
(0.9268801 -9.888752e-19 0 0.01696404 0 0)
(1.040143 0 0 0.02085675 0 0)
(1.154623 1.335808e-18 0 0.02531807 0 0)
(1.269367 0 0 0.03037841 0 0)
(1.3833 -3.443786e-18 0 0.03605718 0 0)
(1.495237 -3.849004e-18 0 0.04235975 0 0)
(1.603898 0 0 0.04927493 0 0)
(1.707949 4.669156e-18 0 0.05677306 0 0)
(1.806039 5.070545e-18 0 0.06480493 0 0)
(1.89685 1.091292e-17 0 0.07330164 0 0)
(1.979134 0 0 0.08217538 0 0)
(2.051754 0 0 0.09132108 0 0)
(2.113711 0 0 0.1006189 0 0)
(2.164171 0 0 0.1099373 0 0)
(2.202465 -1.382364e-17 0 0.1191359 0 0)
(2.228085 4.241201e-17 0 0.128067 0 0)
(2.240676 0 0 0.1365775 0 0)
(2.240033 -2.887783e-17 0 0.1445117 0 0)
(2.226087 0 0 0.1517133 0 0)
(2.198907 -2.858228e-17 0 0.1580281 0 0)
(2.158687 0 0 0.1633069 0 0)
(2.105743 0 0 0.167408 0 0)
(2.040511 0 0 0.1702004 0 0)
(1.963543 0 0 0.1715672 0 0)
(1.875516 0 0 0.1714092 0 0)
(1.777236 0 0 0.1696489 0 0)
(1.669662 8.48406e-17 0 0.1662369 0 0)
(1.553925 3.91243e-17 0 0.1611572 0 0)
(1.43137 0 0 0.1544363 0 0)
(1.303604 0 0 0.1461535 0 0)
(1.172552 0 0 0.1364528 0 0)
(1.0405 -4.99419e-17 0 0.1255556 0 0)
(0.910105 -9.535714e-32 0 0.113769 0 0)
(0.7843098 0 0 0.1014833 0 0)
(0.6661212 0 0 0.08914846 0 0)
(0.5582409 0 0 0.07722554 0 0)
(0.4626349 0 0 0.06611929 0 0)
(0.3802129 0 0 0.05611593 0 0)
(0.3107753 4.669294e-33 0 0.04735227 0 0)
(0.253246 0 0 0.03982733 0 0)
(0.206057 0 0 0.03344404 0 0)
(0.167512 5.533375e-33 0 0.02805755 0 0)
(0.1360285 0 0 0.02351274 0 0)
(0.1102504 0 0 0.01966605 0 0)
(0.08907199 0 0 0.01639456 0 0)
(0.07161495 2.153205e-17 0 0.01359749 0 0)
(0.05719669 8.433155e-18 0 0.01119549 0 0)
(0.04527722 0 0 0.00912499 0 0)
(0.03539831 0 0 0.00732951 0 0)
(0.02723292 7.498824e-18 0 0.005780487 0 0)
(0.02049393 0 0 0.004450583 0 0)
(0.01498426 0 0 0.003323088 0 0)
(0.0104546 0 0 0.002363264 0 0)
(0.007013258 0 0 0.001612639 0 0)
(0.003870216 0 0 0.0009031228 0 0)
(0.002946573 0 0 0.0006958507 0 0)
(-0.0004853653 -0 -0 -0.0001156138 -0 -0)
(0.0007967473 3.320086e-19 0 0.0001906717 0 0)
(5.211179e-06 0 0 5.609011e-10 0 0)
(0.000269578 0 0 1.319229e-07 0 0)
(0.001713916 0 0 1.905443e-06 0 0)
(0.005875071 0 0 1.121778e-05 0 0)
(0.01457557 0 0 4.117099e-05 0 0)
(0.02939622 0 0 0.0001120345 0 0)
(0.05114564 3.810412e-36 0 0.0002473099 0 0)
(0.07966171 0 0 0.0004681324 0 0)
(0.1137919 1.798463e-20 0 0.0007879599 0 0)
(0.1653364 0 0 0.001318219 0 0)
(0.2372234 0 0 0.002141726 0 0)
(0.31827 1.983816e-35 0 0.003218926 0 0)
(0.4070297 0 0 0.004580258 0 0)
(0.5021494 -1.157253e-34 0 0.006259169 0 0)
(0.6025455 0 0 0.008293921 0 0)
(0.7073191 3.454165e-19 0 0.01072659 0 0)
(0.8156807 0 0 0.01360165 0 0)
(0.9268801 -9.888752e-19 0 0.01696404 0 0)
(1.040143 0 0 0.02085675 0 0)
(1.154623 1.335808e-18 0 0.02531807 0 0)
(1.269367 0 0 0.03037841 0 0)
(1.3833 -3.443786e-18 0 0.03605718 0 0)
(1.495237 -3.849004e-18 0 0.04235975 0 0)
(1.603898 0 0 0.04927493 0 0)
(1.707949 4.669156e-18 0 0.05677306 0 0)
(1.806039 5.070545e-18 0 0.06480493 0 0)
(1.89685 1.091292e-17 0 0.07330164 0 0)
(1.979134 0 0 0.08217538 0 0)
(2.051754 0 0 0.09132108 0 0)
(2.113711 0 0 0.1006189 0 0)
(2.164171 0 0 0.1099373 0 0)
(2.202465 -1.382364e-17 0 0.1191359 0 0)
(2.228085 4.241201e-17 0 0.128067 0 0)
(2.240676 0 0 0.1365775 0 0)
(2.240033 -2.887783e-17 0 0.1445117 0 0)
(2.226087 0 0 0.1517133 0 0)
(2.198907 -2.858228e-17 0 0.1580281 0 0)
(2.158687 0 0 0.1633069 0 0)
(2.105743 0 0 0.167408 0 0)
(2.040511 0 0 0.1702004 0 0)
(1.963543 0 0 0.1715672 0 0)
(1.875516 0 0 0.1714092 0 0)
(1.777236 0 0 0.1696489 0 0)
(1.669662 8.48406e-17 0 0.1662369 0 0)
(1.553925 3.91243e-17 0 0.1611572 0 0)
(1.43137 0 0 0.1544363 0 0)
(1.303604 0 0 0.1461535 0 0)
(1.172552 0 0 0.1364528 0 0)
(1.0405 -4.99419e-17 0 0.1255556 0 0)
(0.910105 -9.535714e-32 0 0.113769 0 0)
(0.7843098 0 0 0.1014833 0 0)
(0.6661212 0 0 0.08914846 0 0)
(0.5582409 0 0 0.07722554 0 0)
(0.4626349 0 0 0.06611929 0 0)
(0.3802129 0 0 0.05611593 0 0)
(0.3107753 4.669294e-33 0 0.04735227 0 0)
(0.253246 0 0 0.03982733 0 0)
(0.206057 0 0 0.03344404 0 0)
(0.167512 5.533375e-33 0 0.02805755 0 0)
(0.1360285 0 0 0.02351274 0 0)
(0.1102504 0 0 0.01966605 0 0)
(0.08907199 0 0 0.01639456 0 0)
(0.07161495 2.153205e-17 0 0.01359749 0 0)
(0.05719669 8.433155e-18 0 0.01119549 0 0)
(0.04527722 0 0 0.00912499 0 0)
(0.03539831 0 0 0.00732951 0 0)
(0.02723292 7.498824e-18 0 0.005780487 0 0)
(0.02049393 0 0 0.004450583 0 0)
(0.01498426 0 0 0.003323088 0 0)
(0.0104546 0 0 0.002363264 0 0)
(0.007013258 0 0 0.001612639 0 0)
(0.003870216 0 0 0.0009031228 0 0)
(0.002946573 0 0 0.0006958507 0 0)
(-0.0004853653 -0 -0 -0.0001156138 -0 -0)
(0.0007967473 3.320086e-19 0 0.0001906717 0 0)
)
;
    }
    wall
    {
        type            calculated;
        value           nonuniform List<symmTensor> 2((4.741483e-10 0 0 3.081964e-10 0 0) (4.741366e-10 0 0 3.081888e-10 0 0));
    }
    frontAndBack
    {
        type            empty;
    }
    middle
    {
        type            symmetryPlane;
        value           nonuniform List<symmTensor> 2((0.0007967481 0 0 0.0001906719 0 0) (0.0007967464 0 0 0.0001906715 0 0));
    }
}


// ************************************************************************* //
