/*--------------------------------*- C++ -*----------------------------------*\
| =========                 |                                                 |
| \\      /  F ield         | foam-extend: Open Source CFD                    |
|  \\    /   O peration     | Version:     4.0                                |
|   \\  /    A nd           | Web:         http://www.foam-extend.org         |
|    \\/     M anipulation  |                                                 |
\*---------------------------------------------------------------------------*/
FoamFile
{
    version     2.0;
    format      ascii;
    class       volScalarField;
    location    "100";
    object      nut;
}
// * * * * * * * * * * * * * * * * * * * * * * * * * * * * * * * * * * * * * //

dimensions      [0 2 -1 0 0 0 0];

internalField   nonuniform List<scalar> 
150
(
8.427634e-09
8.427636e-09
4.365904e-07
4.365904e-07
2.781225e-06
2.781226e-06
9.566394e-06
9.566396e-06
2.387499e-05
2.387499e-05
4.859849e-05
4.85985e-05
8.562979e-05
8.56298e-05
0.0001354274
0.0001354275
0.0001972104
0.0001972104
0.0002946807
0.0002946808
0.0004393115
0.0004393116
0.0006163218
0.0006163219
0.00082691
0.0008269102
0.001072851
0.001072851
0.001356375
0.001356376
0.001680031
0.001680031
0.002046575
0.002046575
0.002458889
0.002458889
0.002919919
0.002919919
0.00343262
0.003432621
0.003999914
0.003999915
0.00462465
0.004624651
0.005309567
0.005309568
0.006057272
0.006057273
0.006870212
0.006870213
0.007750659
0.00775066
0.008700703
0.008700705
0.009722257
0.009722258
0.01081706
0.01081706
0.01198672
0.01198673
0.01323276
0.01323276
0.01455658
0.01455658
0.01595944
0.01595944
0.01744235
0.01744235
0.01900604
0.01900604
0.02065092
0.02065092
0.02237698
0.02237698
0.02418381
0.02418381
0.02607048
0.02607048
0.02803558
0.02803558
0.03007714
0.03007715
0.03219263
0.03219264
0.03437896
0.03437896
0.03663246
0.03663246
0.03894899
0.03894899
0.04132392
0.04132392
0.04375231
0.04375231
0.04622895
0.04622895
0.0487486
0.0487486
0.05130613
0.05130613
0.05389675
0.05389675
0.05651623
0.05651623
0.05916113
0.05916113
0.06182902
0.06182902
0.06451869
0.06451869
0.06723033
0.06723033
0.06996574
0.06996573
0.07272839
0.07272838
0.07552339
0.07552339
0.07835714
0.07835714
0.08123646
0.08123645
0.08416681
0.08416681
0.08714932
0.08714931
0.09017549
0.09017549
0.09321899
0.09321899
0.09622244
0.09622243
0.09921293
0.09921293
0.1022513
0.1022513
0.105384
0.105384
0.1086261
0.1086261
0.1119377
0.1119377
0.1151966
0.1151966
0.1181764
0.1181764
0.1205464
0.1205464
0.1219139
0.1219139
)
;

boundaryField
{
    leftandright
    {
        type            cyclic;
        value           nonuniform List<scalar> 
150
(
8.427635e-09
4.365904e-07
2.781226e-06
9.566395e-06
2.387499e-05
4.859849e-05
8.562979e-05
0.0001354274
0.0001972104
0.0002946807
0.0004393115
0.0006163219
0.0008269101
0.001072851
0.001356376
0.001680031
0.002046575
0.002458889
0.002919919
0.00343262
0.003999915
0.00462465
0.005309568
0.006057273
0.006870212
0.007750659
0.008700704
0.009722258
0.01081706
0.01198673
0.01323276
0.01455658
0.01595944
0.01744235
0.01900604
0.02065092
0.02237698
0.02418381
0.02607048
0.02803558
0.03007715
0.03219264
0.03437896
0.03663246
0.03894899
0.04132392
0.04375231
0.04622895
0.0487486
0.05130613
0.05389675
0.05651623
0.05916113
0.06182902
0.06451869
0.06723033
0.06996574
0.07272838
0.07552339
0.07835714
0.08123645
0.08416681
0.08714931
0.09017549
0.09321899
0.09622244
0.09921293
0.1022513
0.105384
0.1086261
0.1119377
0.1151966
0.1181764
0.1205464
0.1219139
8.427635e-09
4.365904e-07
2.781226e-06
9.566395e-06
2.387499e-05
4.859849e-05
8.562979e-05
0.0001354274
0.0001972104
0.0002946807
0.0004393115
0.0006163219
0.0008269101
0.001072851
0.001356376
0.001680031
0.002046575
0.002458889
0.002919919
0.00343262
0.003999915
0.00462465
0.005309568
0.006057273
0.006870212
0.007750659
0.008700704
0.009722258
0.01081706
0.01198673
0.01323276
0.01455658
0.01595944
0.01744235
0.01900604
0.02065092
0.02237698
0.02418381
0.02607048
0.02803558
0.03007715
0.03219264
0.03437896
0.03663246
0.03894899
0.04132392
0.04375231
0.04622895
0.0487486
0.05130613
0.05389675
0.05651623
0.05916113
0.06182902
0.06451869
0.06723033
0.06996574
0.07272838
0.07552339
0.07835714
0.08123645
0.08416681
0.08714931
0.09017549
0.09321899
0.09622244
0.09921293
0.1022513
0.105384
0.1086261
0.1119377
0.1151966
0.1181764
0.1205464
0.1219139
)
;
    }
    wall
    {
        type            nutLowReWallFunction;
        Cmu             0.09;
        kappa           0.41;
        E               9.8;
        value           nonuniform List<scalar> 2(7.662602e-13 7.662602e-13);
    }
    frontAndBack
    {
        type            empty;
    }
    middle
    {
        type            symmetryPlane;
        value           nonuniform List<scalar> 2(0.1219139 0.1219139);
    }
}


// ************************************************************************* //
