/*--------------------------------*- C++ -*----------------------------------*\
| =========                 |                                                 |
| \\      /  F ield         | foam-extend: Open Source CFD                    |
|  \\    /   O peration     | Version:     4.0                                |
|   \\  /    A nd           | Web:         http://www.foam-extend.org         |
|    \\/     M anipulation  |                                                 |
\*---------------------------------------------------------------------------*/
FoamFile
{
    version     2.0;
    format      ascii;
    class       volScalarField;
    location    "100";
    object      p;
}
// * * * * * * * * * * * * * * * * * * * * * * * * * * * * * * * * * * * * * //

dimensions      [0 2 -2 0 0 0 0];

internalField   nonuniform List<scalar> 
150
(
-6.815703e-09
-0.05000001
-6.476458e-05
-0.05006477
-0.0003259727
-0.05032598
-0.001024879
-0.05102489
-0.00243317
-0.05243318
-0.00482154
-0.05482154
-0.008435934
-0.05843594
-0.01348405
-0.06348405
-0.02012068
-0.07012068
-0.02842039
-0.07842039
-0.03836902
-0.08836902
-0.04989651
-0.09989651
-0.06290879
-0.1129088
-0.07729099
-0.127291
-0.09290592
-0.1429059
-0.1096003
-0.1596003
-0.1272125
-0.1772125
-0.1455791
-0.1955791
-0.1645406
-0.2145407
-0.183945
-0.233945
-0.2036504
-0.2536504
-0.2235266
-0.2735266
-0.2434558
-0.2934558
-0.2633323
-0.3133323
-0.2830627
-0.3330627
-0.3025648
-0.3525649
-0.3217678
-0.3717678
-0.3406109
-0.3906109
-0.3590437
-0.4090437
-0.377026
-0.427026
-0.3945274
-0.4445274
-0.4115262
-0.4615262
-0.4280064
-0.4780064
-0.4439555
-0.4939556
-0.459363
-0.509363
-0.4742186
-0.5242186
-0.4885121
-0.5385121
-0.5022319
-0.5522319
-0.5153649
-0.5653649
-0.5278955
-0.5778955
-0.5398057
-0.5898057
-0.551074
-0.601074
-0.5616756
-0.6116756
-0.5715817
-0.6215817
-0.5807589
-0.6307589
-0.5891687
-0.6391687
-0.5967669
-0.6467669
-0.6035029
-0.6535029
-0.6093186
-0.6593186
-0.614149
-0.664149
-0.6179234
-0.6679234
-0.6205683
-0.6705683
-0.6220147
-0.6720147
-0.6222049
-0.6722049
-0.6211006
-0.6711006
-0.6186862
-0.6686862
-0.6149687
-0.6649687
-0.609973
-0.659973
-0.6037352
-0.6537352
-0.5962959
-0.6462959
-0.5876926
-0.6376926
-0.5779506
-0.6279506
-0.5670704
-0.6170704
-0.5550125
-0.6050125
-0.541628
-0.591628
-0.5267993
-0.5767993
-0.5108188
-0.5608188
-0.4942466
-0.5442466
-0.4778368
-0.5278368
-0.4616293
-0.5116293
-0.4483366
-0.4983366
-0.431037
-0.481037
-0.4360255
-0.4860255
-0.3736503
-0.4236503
-0.5322098
-0.5822098
)
;

boundaryField
{
    leftandright
    {
        type            fan;
        patchType       cyclic;
        f               1(-0.1);
        value           nonuniform List<scalar> 
150
(
0.02499999
0.02493523
0.02467402
0.02397512
0.02256683
0.02017846
0.01656407
0.01151595
0.004879321
-0.003420392
-0.01336902
-0.02489651
-0.0379088
-0.05229099
-0.06790592
-0.08460032
-0.1022125
-0.1205791
-0.1395406
-0.158945
-0.1786504
-0.1985266
-0.2184558
-0.2383323
-0.2580627
-0.2775649
-0.2967678
-0.3156109
-0.3340437
-0.352026
-0.3695274
-0.3865262
-0.4030064
-0.4189555
-0.434363
-0.4492186
-0.4635121
-0.4772319
-0.4903649
-0.5028955
-0.5148057
-0.526074
-0.5366756
-0.5465817
-0.5557589
-0.5641687
-0.5717669
-0.5785029
-0.5843186
-0.589149
-0.5929234
-0.5955683
-0.5970147
-0.5972049
-0.5961006
-0.5936862
-0.5899687
-0.584973
-0.5787352
-0.5712959
-0.5626926
-0.5529506
-0.5420704
-0.5300125
-0.516628
-0.5017993
-0.4858188
-0.4692466
-0.4528368
-0.4366293
-0.4233366
-0.406037
-0.4110255
-0.3486503
-0.5072098
-0.07500001
-0.07506477
-0.07532598
-0.07602488
-0.07743317
-0.07982154
-0.08343593
-0.08848405
-0.09512068
-0.1034204
-0.113369
-0.1248965
-0.1379088
-0.152291
-0.1679059
-0.1846003
-0.2022125
-0.2205791
-0.2395406
-0.258945
-0.2786504
-0.2985266
-0.3184558
-0.3383323
-0.3580627
-0.3775649
-0.3967678
-0.4156109
-0.4340437
-0.452026
-0.4695274
-0.4865262
-0.5030064
-0.5189555
-0.534363
-0.5492186
-0.5635121
-0.5772319
-0.5903649
-0.6028955
-0.6148057
-0.626074
-0.6366756
-0.6465817
-0.6557589
-0.6641687
-0.6717669
-0.6785029
-0.6843186
-0.689149
-0.6929234
-0.6955683
-0.6970147
-0.6972049
-0.6961006
-0.6936862
-0.6899687
-0.684973
-0.6787352
-0.6712959
-0.6626926
-0.6529506
-0.6420704
-0.6300125
-0.616628
-0.6017993
-0.5858188
-0.5692466
-0.5528368
-0.5366293
-0.5233366
-0.506037
-0.5110255
-0.4486503
-0.6072098
)
;
    }
    wall
    {
        type            zeroGradient;
    }
    frontAndBack
    {
        type            empty;
    }
    middle
    {
        type            symmetryPlane;
        value           nonuniform List<scalar> 2(-0.5322098 -0.5822098);
    }
}


// ************************************************************************* //
