/*--------------------------------*- C++ -*----------------------------------*\
| =========                 |                                                 |
| \\      /  F ield         | foam-extend: Open Source CFD                    |
|  \\    /   O peration     | Version:     4.0                                |
|   \\  /    A nd           | Web:         http://www.foam-extend.org         |
|    \\/     M anipulation  |                                                 |
\*---------------------------------------------------------------------------*/
FoamFile
{
    version     2.0;
    format      ascii;
    class       surfaceScalarField;
    location    "100";
    object      phi;
}
// * * * * * * * * * * * * * * * * * * * * * * * * * * * * * * * * * * * * * //

dimensions      [0 3 -1 0 0 0 0];

internalField   nonuniform List<scalar> 
223
(
3.238731e-05
7.777795e-12
3.238205e-14
0.0001037708
7.64859e-12
7.352239e-14
0.0001859628
7.474857e-12
1.101239e-13
0.0002801288
7.27287e-12
1.388874e-13
0.0003874199
7.051148e-12
1.53796e-13
0.0005089251
6.815459e-12
1.550504e-13
0.0006456518
6.56937e-12
1.498573e-13
0.000798552
6.317889e-12
1.494318e-13
0.0009685819
6.069346e-12
1.659488e-13
0.001156098
5.834648e-12
2.094731e-13
0.001360421
5.624828e-12
2.860932e-13
0.001580903
5.448497e-12
3.982355e-13
0.001817345
5.310612e-12
5.450646e-13
0.002069613
5.212632e-12
7.221478e-13
0.00233766
5.152629e-12
9.219313e-13
0.002621545
5.125021e-12
1.135147e-12
0.002921443
5.121989e-12
1.350994e-12
0.003237651
5.134777e-12
1.557603e-12
0.003570598
5.152469e-12
1.745023e-12
0.003920839
5.162782e-12
1.906077e-12
0.004289057
5.154298e-12
2.035577e-12
0.004676063
5.118038e-12
2.130023e-12
0.005082787
5.049318e-12
2.186775e-12
0.005510276
4.944661e-12
2.207848e-12
0.005959694
4.802007e-12
2.199972e-12
0.006432312
4.626799e-12
2.168369e-12
0.006929511
4.427851e-12
2.120388e-12
0.007452781
4.20789e-12
2.074011e-12
0.008003714
3.972447e-12
2.047387e-12
0.008584013
3.738685e-12
2.048058e-12
0.009195482
3.518152e-12
2.087994e-12
0.009840039
3.31482e-12
2.182919e-12
0.01051971
3.132565e-12
2.34181e-12
0.01123663
2.975876e-12
2.564072e-12
0.01199307
2.853144e-12
2.835575e-12
0.01279141
2.767502e-12
3.138248e-12
0.01363418
2.714368e-12
3.454262e-12
0.01452403
2.689414e-12
3.760961e-12
0.01546379
2.680535e-12
4.042654e-12
0.01645641
2.664296e-12
4.298087e-12
0.01750503
2.637251e-12
4.512599e-12
0.01861296
2.622852e-12
4.654289e-12
0.01978369
2.624717e-12
4.722282e-12
0.0210209
2.627999e-12
4.744745e-12
0.02232848
2.630668e-12
4.74531e-12
0.02371052
2.653762e-12
4.7295e-12
0.02517132
2.747063e-12
4.674858e-12
0.02671542
2.893167e-12
4.621387e-12
0.02834756
3.070411e-12
4.602986e-12
0.03007272
3.33374e-12
4.562649e-12
0.0318961
3.660331e-12
4.504531e-12
0.03382311
3.982418e-12
4.461245e-12
0.03585939
4.272342e-12
4.412891e-12
0.03801075
4.473506e-12
4.363774e-12
0.04028323
4.521547e-12
4.330537e-12
0.04268306
4.433454e-12
4.26252e-12
0.04521662
4.232814e-12
4.123996e-12
0.04789048
3.942599e-12
3.90395e-12
0.05071135
3.600091e-12
3.595869e-12
0.05368603
3.205507e-12
3.236681e-12
0.0568214
2.798589e-12
2.815298e-12
0.06012438
2.381059e-12
2.338861e-12
0.06360186
1.900047e-12
1.84953e-12
0.06726071
1.361681e-12
1.332009e-12
0.07110775
7.945506e-13
7.649423e-13
0.07514971
2.271794e-13
1.857644e-13
0.07939309
-2.392446e-13
-2.966514e-13
0.08384369
-4.059567e-13
-5.141646e-13
0.08850648
-1.069641e-13
-2.490915e-13
0.09338553
5.826132e-13
4.830403e-13
0.09848398
1.16429e-12
1.026809e-12
0.1038039
-1.180934e-13
1.614418e-13
0.1093462
-3.389318e-13
-6.507346e-13
0.1151099
1.779585e-13
-1.631032e-13
0.1210908
)
;

boundaryField
{
    leftandright
    {
        type            cyclic;
        value           nonuniform List<scalar> 
150
(
-3.238731e-05
-0.0001037708
-0.0001859628
-0.0002801288
-0.0003874199
-0.0005089251
-0.0006456518
-0.000798552
-0.0009685819
-0.001156098
-0.001360421
-0.001580903
-0.001817345
-0.002069613
-0.00233766
-0.002621545
-0.002921443
-0.003237651
-0.003570598
-0.003920839
-0.004289057
-0.004676063
-0.005082787
-0.005510276
-0.005959694
-0.006432312
-0.006929511
-0.007452781
-0.008003714
-0.008584013
-0.009195482
-0.009840039
-0.01051971
-0.01123663
-0.01199307
-0.01279141
-0.01363418
-0.01452403
-0.01546379
-0.01645641
-0.01750503
-0.01861296
-0.01978369
-0.0210209
-0.02232848
-0.02371052
-0.02517132
-0.02671542
-0.02834756
-0.03007272
-0.0318961
-0.03382311
-0.03585939
-0.03801075
-0.04028323
-0.04268306
-0.04521662
-0.04789048
-0.05071135
-0.05368603
-0.0568214
-0.06012438
-0.06360186
-0.06726071
-0.07110775
-0.07514971
-0.07939309
-0.08384369
-0.08850648
-0.09338553
-0.09848398
-0.1038039
-0.1093462
-0.1151099
-0.1210908
3.238731e-05
0.0001037708
0.0001859628
0.0002801288
0.0003874199
0.0005089251
0.0006456518
0.000798552
0.0009685819
0.001156098
0.001360421
0.001580903
0.001817345
0.002069613
0.00233766
0.002621545
0.002921443
0.003237651
0.003570598
0.003920839
0.004289057
0.004676063
0.005082787
0.005510276
0.005959694
0.006432312
0.006929511
0.007452781
0.008003714
0.008584013
0.009195482
0.009840039
0.01051971
0.01123663
0.01199307
0.01279141
0.01363418
0.01452403
0.01546379
0.01645641
0.01750503
0.01861296
0.01978369
0.0210209
0.02232848
0.02371052
0.02517132
0.02671542
0.02834756
0.03007272
0.0318961
0.03382311
0.03585939
0.03801075
0.04028323
0.04268306
0.04521662
0.04789048
0.05071135
0.05368603
0.0568214
0.06012438
0.06360186
0.06726071
0.07110775
0.07514971
0.07939309
0.08384369
0.08850648
0.09338553
0.09848398
0.1038039
0.1093462
0.1151099
0.1210908
)
;
    }
    wall
    {
        type            calculated;
        value           uniform 0;
    }
    frontAndBack
    {
        type            empty;
    }
    middle
    {
        type            symmetryPlane;
        value           uniform 0;
    }
}


// ************************************************************************* //
