/*--------------------------------*- C++ -*----------------------------------*\
| =========                 |                                                 |
| \\      /  F ield         | foam-extend: Open Source CFD                    |
|  \\    /   O peration     | Version:     4.0                                |
|   \\  /    A nd           | Web:         http://www.foam-extend.org         |
|    \\/     M anipulation  |                                                 |
\*---------------------------------------------------------------------------*/
FoamFile
{
    version     2.0;
    format      ascii;
    class       volScalarField;
    location    "100";
    object      QR;
}
// * * * * * * * * * * * * * * * * * * * * * * * * * * * * * * * * * * * * * //

dimensions      [0 0 -1 0 0 0 0];

internalField   nonuniform List<scalar> 
150
(
417.3951
417.3952
416.6968
416.6969
415.5843
415.5844
413.6287
413.6288
410.3368
410.3368
405.2949
405.2949
398.3117
398.3116
389.483
389.483
378.2371
378.237
363.001
363.001
343.6701
343.6701
322.0519
322.0518
299.5585
299.5585
276.876
276.876
254.5473
254.5473
232.9833
232.9833
212.4786
212.4786
193.2285
193.2285
175.3462
175.3462
158.8789
158.8789
143.8234
143.8234
130.1389
130.1389
117.7589
117.7589
106.6004
106.6004
96.57113
96.57113
87.57521
87.57521
79.51719
79.51719
72.30481
72.30481
65.85077
65.85077
60.07389
60.07389
54.89958
54.89958
50.26024
50.26024
46.09521
46.09521
42.35054
42.35054
38.97848
38.97849
35.93688
35.93688
33.18858
33.18858
30.70086
30.70086
28.44492
28.44492
26.39535
26.39535
24.52976
24.52976
22.82831
22.82831
21.27345
21.27345
19.84958
19.84958
18.54278
18.54278
17.34059
17.34059
16.23177
16.23177
15.20618
15.20618
14.25457
14.25457
13.36853
13.36853
12.54039
12.54039
11.76321
11.76321
11.03084
11.03084
10.33788
10.33788
9.67973
9.67973
9.052435
9.052435
8.452601
8.452601
7.877245
7.877245
7.323706
7.323706
6.789614
6.789614
6.272916
6.272916
5.771938
5.771938
5.285472
5.285472
4.812863
4.812863
4.354076
4.354076
3.90852
3.90852
3.473696
3.473696
3.046482
3.046482
2.624937
2.624937
2.208547
2.208547
1.797797
1.797797
1.393463
1.393463
0.9967662
0.9967661
0.6087547
0.6087544
0.2091554
0.2091551
)
;

boundaryField
{
    leftandright
    {
        type            cyclic;
        value           nonuniform List<scalar> 
150
(
417.3952
416.6969
415.5843
413.6288
410.3368
405.2949
398.3117
389.483
378.237
363.001
343.6701
322.0518
299.5585
276.876
254.5473
232.9833
212.4786
193.2285
175.3462
158.8789
143.8234
130.1389
117.7589
106.6004
96.57113
87.57521
79.51719
72.30481
65.85077
60.07389
54.89958
50.26024
46.09521
42.35054
38.97849
35.93688
33.18858
30.70086
28.44492
26.39535
24.52976
22.82831
21.27345
19.84958
18.54278
17.34059
16.23177
15.20618
14.25457
13.36853
12.54039
11.76321
11.03084
10.33788
9.67973
9.052435
8.452601
7.877245
7.323706
6.789614
6.272916
5.771938
5.285472
4.812863
4.354076
3.90852
3.473696
3.046482
2.624937
2.208547
1.797797
1.393463
0.9967662
0.6087546
0.2091553
417.3952
416.6969
415.5843
413.6288
410.3368
405.2949
398.3117
389.483
378.237
363.001
343.6701
322.0518
299.5585
276.876
254.5473
232.9833
212.4786
193.2285
175.3462
158.8789
143.8234
130.1389
117.7589
106.6004
96.57113
87.57521
79.51719
72.30481
65.85077
60.07389
54.89958
50.26024
46.09521
42.35054
38.97849
35.93688
33.18858
30.70086
28.44492
26.39535
24.52976
22.82831
21.27345
19.84958
18.54278
17.34059
16.23177
15.20618
14.25457
13.36853
12.54039
11.76321
11.03084
10.33788
9.67973
9.052435
8.452601
7.877245
7.323706
6.789614
6.272916
5.771938
5.285472
4.812863
4.354076
3.90852
3.473696
3.046482
2.624937
2.208547
1.797797
1.393463
0.9967662
0.6087546
0.2091553
)
;
    }
    wall
    {
        type            calculated;
        value           nonuniform List<scalar> 2(417.6864 417.6865);
    }
    frontAndBack
    {
        type            empty;
    }
    middle
    {
        type            symmetryPlane;
        value           nonuniform List<scalar> 2(0.5126198 0.5126198);
    }
}


// ************************************************************************* //
