/*--------------------------------*- C++ -*----------------------------------*\
| =========                 |                                                 |
| \\      /  F ield         | foam-extend: Open Source CFD                    |
|  \\    /   O peration     | Version:     4.0                                |
|   \\  /    A nd           | Web:         http://www.foam-extend.org         |
|    \\/     M anipulation  |                                                 |
\*---------------------------------------------------------------------------*/
FoamFile
{
    version     2.0;
    format      ascii;
    class       volSymmTensorField;
    location    "100";
    object      RStress;
}
// * * * * * * * * * * * * * * * * * * * * * * * * * * * * * * * * * * * * * //

dimensions      [0 2 -2 0 0 0 0];

internalField   nonuniform List<symmTensor> 
150
(
(0.01245481 -3.517654e-06 0 1.058313e-06 0 0.0003275406)
(0.01245482 -3.517655e-06 0 1.058314e-06 0 0.0003275385)
(0.1325773 -0.0001819258 0 5.123695e-05 0 0.003489395)
(0.1325773 -0.0001819259 0 5.123696e-05 0 0.003489373)
(0.349689 -0.001155834 0 0.0003071912 0 0.009217457)
(0.3496891 -0.001155834 0 0.0003071913 0 0.009217446)
(0.660925 -0.003956935 0 0.001004491 0 0.02196937)
(0.6609251 -0.003956937 0 0.001004491 0 0.02196937)
(1.065938 -0.009796786 0 0.002415111 0 0.04312775)
(1.065938 -0.009796788 0 0.002415112 0 0.04312776)
(1.563046 -0.01969672 0 0.004812192 0 0.07351837)
(1.563047 -0.01969672 0 0.004812193 0 0.07351838)
(2.147542 -0.03410734 0 0.008443261 0 0.1138731)
(2.147542 -0.03410735 0 0.008443263 0 0.1138731)
(2.811563 -0.05274668 0 0.01351492 0 0.1644935)
(2.811564 -0.05274669 0 0.01351492 0 0.1644936)
(3.544668 -0.07459227 0 0.02019006 0 0.2253188)
(3.544668 -0.07459227 0 0.02019007 0 0.2253188)
(4.331709 -0.1069694 0 0.02855644 0 0.2957204)
(4.331709 -0.1069694 0 0.02855645 0 0.2957205)
(5.144224 -0.1509782 0 0.03859195 0 0.3740485)
(5.144225 -0.1509782 0 0.03859196 0 0.3740486)
(5.947422 -0.1984876 0 0.05022512 0 0.4581393)
(5.947423 -0.1984876 0 0.05022514 0 0.4581393)
(6.712002 -0.247708 0 0.06337331 0 0.545914)
(6.712003 -0.247708 0 0.06337332 0 0.5459141)
(7.413872 -0.2970467 0 0.07792405 0 0.6353116)
(7.413872 -0.2970468 0 0.07792406 0 0.6353117)
(8.035441 -0.3452617 0 0.0937431 0 0.724421)
(8.035441 -0.3452618 0 0.09374312 0 0.7244211)
(8.565842 -0.3914192 0 0.110681 0 0.8115738)
(8.565842 -0.3914193 0 0.110681 0 0.8115739)
(9.000375 -0.4348533 0 0.1285804 0 0.8953976)
(9.000375 -0.4348534 0 0.1285805 0 0.8953977)
(9.339486 -0.4751273 0 0.1472825 0 0.9748329)
(9.339486 -0.4751274 0 0.1472825 0 0.974833)
(9.587542 -0.5119965 0 0.1666318 0 1.049123)
(9.587542 -0.5119966 0 0.1666318 0 1.049123)
(9.751614 -0.545371 0 0.1864801 0 1.117783)
(9.751614 -0.5453711 0 0.1864801 0 1.117783)
(9.840395 -0.5752813 0 0.2066887 0 1.18056)
(9.840396 -0.5752814 0 0.2066888 0 1.18056)
(9.863313 -0.6018469 0 0.2271294 0 1.237391)
(9.863313 -0.601847 0 0.2271295 0 1.237391)
(9.829862 -0.625249 0 0.2476849 0 1.288355)
(9.829862 -0.6252491 0 0.247685 0 1.288355)
(9.749137 -0.6457078 0 0.2682486 0 1.333638)
(9.749138 -0.6457079 0 0.2682486 0 1.333638)
(9.629537 -0.6634641 0 0.2887241 0 1.373499)
(9.629537 -0.6634642 0 0.2887242 0 1.373499)
(9.4786 -0.6787655 0 0.3090247 0 1.40824)
(9.4786 -0.6787656 0 0.3090247 0 1.40824)
(9.302942 -0.6918555 0 0.3290725 0 1.438191)
(9.302942 -0.6918556 0 0.3290725 0 1.438191)
(9.108259 -0.7029659 0 0.3487983 0 1.463687)
(9.10826 -0.702966 0 0.3487983 0 1.463687)
(8.89938 -0.7123119 0 0.3681413 0 1.485065)
(8.89938 -0.712312 0 0.3681414 0 1.485065)
(8.680334 -0.7200892 0 0.3870494 0 1.50265)
(8.680334 -0.7200893 0 0.3870494 0 1.50265)
(8.45444 -0.726473 0 0.405479 0 1.516755)
(8.454441 -0.7264731 0 0.4054791 0 1.516755)
(8.224401 -0.7316172 0 0.4233947 0 1.527676)
(8.224401 -0.7316173 0 0.4233947 0 1.527676)
(7.992394 -0.7356536 0 0.4407654 0 1.535684)
(7.992394 -0.7356537 0 0.4407655 0 1.535684)
(7.760154 -0.7386929 0 0.4575635 0 1.541027)
(7.760154 -0.738693 0 0.4575636 0 1.541027)
(7.529046 -0.7408268 0 0.4737628 0 1.543923)
(7.529047 -0.7408268 0 0.4737628 0 1.543923)
(7.300129 -0.7421296 0 0.4893374 0 1.544569)
(7.30013 -0.7421297 0 0.4893374 0 1.544569)
(7.074202 -0.7426602 0 0.5042615 0 1.543135)
(7.074202 -0.7426603 0 0.5042616 0 1.543135)
(6.851852 -0.7424637 0 0.5185088 0 1.539767)
(6.851852 -0.7424637 0 0.5185088 0 1.539767)
(6.633487 -0.7415727 0 0.5320518 0 1.534593)
(6.633487 -0.7415728 0 0.5320518 0 1.534593)
(6.41937 -0.7400091 0 0.5448618 0 1.527717)
(6.41937 -0.7400092 0 0.5448619 0 1.527717)
(6.209638 -0.737785 0 0.5569091 0 1.519228)
(6.209638 -0.7377851 0 0.5569091 0 1.519228)
(6.004327 -0.7349033 0 0.5681623 0 1.509195)
(6.004327 -0.7349034 0 0.5681623 0 1.509195)
(5.803386 -0.731359 0 0.5785888 0 1.497673)
(5.803386 -0.7313591 0 0.5785888 0 1.497673)
(5.606691 -0.7271391 0 0.5881547 0 1.484701)
(5.606691 -0.7271391 0 0.5881547 0 1.484701)
(5.414056 -0.7222226 0 0.5968252 0 1.470303)
(5.414056 -0.7222227 0 0.5968252 0 1.470303)
(5.225244 -0.7165811 0 0.6045644 0 1.454494)
(5.225244 -0.7165811 0 0.6045644 0 1.454494)
(5.039976 -0.7101774 0 0.6113361 0 1.437275)
(5.039976 -0.7101774 0 0.6113361 0 1.437275)
(4.857938 -0.7029656 0 0.617104 0 1.418638)
(4.857938 -0.7029656 0 0.617104 0 1.418638)
(4.678795 -0.6948904 0 0.6218322 0 1.398566)
(4.678795 -0.6948904 0 0.6218322 0 1.398566)
(4.502199 -0.6858875 0 0.6254865 0 1.37704)
(4.502199 -0.6858876 0 0.6254865 0 1.37704)
(4.327804 -0.675886 0 0.6280348 0 1.354034)
(4.327804 -0.675886 0 0.6280348 0 1.354034)
(4.155283 -0.6648122 0 0.6294487 0 1.329526)
(4.155283 -0.6648122 0 0.6294487 0 1.329526)
(3.984345 -0.6525967 0 0.6297049 0 1.3035)
(3.984345 -0.6525967 0 0.6297048 0 1.3035)
(3.814754 -0.6391811 0 0.6287859 0 1.275948)
(3.814754 -0.6391811 0 0.6287859 0 1.275948)
(3.646347 -0.6245235 0 0.6266821 0 1.24688)
(3.646347 -0.6245235 0 0.6266821 0 1.24688)
(3.479046 -0.6085982 0 0.6233916 0 1.216321)
(3.479046 -0.6085982 0 0.6233916 0 1.216321)
(3.312873 -0.5913924 0 0.6189216 0 1.18432)
(3.312873 -0.5913924 0 0.6189216 0 1.18432)
(3.147957 -0.5728993 0 0.6132873 0 1.150949)
(3.147957 -0.5728993 0 0.6132873 0 1.150949)
(2.984543 -0.5531111 0 0.6065106 0 1.116304)
(2.984543 -0.5531111 0 0.6065106 0 1.116304)
(2.823004 -0.5320148 0 0.5986166 0 1.080506)
(2.823005 -0.5320148 0 0.5986165 0 1.080506)
(2.663854 -0.5095894 0 0.5896284 0 1.0437)
(2.663854 -0.5095894 0 0.5896284 0 1.0437)
(2.507759 -0.4858056 0 0.5795589 0 1.006049)
(2.507759 -0.4858056 0 0.5795589 0 1.006049)
(2.355562 -0.4606253 0 0.5684009 0 0.9677376)
(2.355562 -0.4606253 0 0.5684008 0 0.9677376)
(2.208294 -0.4340023 0 0.5560917 0 0.9289534)
(2.208294 -0.4340022 0 0.5560916 0 0.9289534)
(2.067194 -0.4058826 0 0.5425182 0 0.8898789)
(2.067194 -0.4058826 0 0.5425181 0 0.8898789)
(1.933734 -0.3760874 0 0.5274974 0 0.850666)
(1.933734 -0.3760873 0 0.5274973 0 0.850666)
(1.80861 -0.3446356 0 0.5113525 0 0.8118498)
(1.80861 -0.3446356 0 0.5113525 0 0.8118498)
(1.692409 -0.3115068 0 0.4947059 0 0.7741412)
(1.692409 -0.3115068 0 0.4947059 0 0.7741412)
(1.585976 -0.2766264 0 0.4779689 0 0.7382942)
(1.585976 -0.2766264 0 0.4779689 0 0.7382942)
(1.490373 -0.2399057 0 0.4624392 0 0.7050982)
(1.490373 -0.2399057 0 0.4624392 0 0.7050982)
(1.406821 -0.2012399 0 0.4463913 0 0.6753627)
(1.406821 -0.2012399 0 0.4463913 0 0.6753627)
(1.336655 -0.1605038 0 0.4380282 0 0.6498995)
(1.336655 -0.1605038 0 0.4380282 0 0.6498995)
(1.281303 -0.1175606 0 0.4136817 0 0.6295109)
(1.281303 -0.1175606 0 0.4136817 0 0.6295109)
(1.24235 -0.07227343 0 0.4346522 0 0.6150091)
(1.24235 -0.07227338 0 0.4346522 0 0.6150091)
(1.221632 -0.02451751 0 0.4027236 0 0.6072452)
(1.221632 -0.02451746 0 0.4027236 0 0.6072452)
)
;

boundaryField
{
    leftandright
    {
        type            cyclic;
        value           nonuniform List<symmTensor> 
150
(
(0.01245481 -3.517654e-06 0 1.058314e-06 0 0.0003275396)
(0.1325773 -0.0001819258 0 5.123695e-05 0 0.003489384)
(0.349689 -0.001155834 0 0.0003071912 0 0.009217452)
(0.6609251 -0.003956936 0 0.001004491 0 0.02196937)
(1.065938 -0.009796787 0 0.002415112 0 0.04312775)
(1.563047 -0.01969672 0 0.004812193 0 0.07351838)
(2.147542 -0.03410735 0 0.008443262 0 0.1138731)
(2.811563 -0.05274669 0 0.01351492 0 0.1644935)
(3.544668 -0.07459227 0 0.02019006 0 0.2253188)
(4.331709 -0.1069694 0 0.02855644 0 0.2957204)
(5.144225 -0.1509782 0 0.03859196 0 0.3740485)
(5.947423 -0.1984876 0 0.05022513 0 0.4581393)
(6.712003 -0.247708 0 0.06337331 0 0.5459141)
(7.413872 -0.2970468 0 0.07792406 0 0.6353117)
(8.035441 -0.3452618 0 0.09374311 0 0.724421)
(8.565842 -0.3914193 0 0.110681 0 0.8115738)
(9.000375 -0.4348533 0 0.1285805 0 0.8953976)
(9.339486 -0.4751274 0 0.1472825 0 0.974833)
(9.587542 -0.5119966 0 0.1666318 0 1.049123)
(9.751614 -0.5453711 0 0.1864801 0 1.117783)
(9.840395 -0.5752814 0 0.2066888 0 1.18056)
(9.863313 -0.601847 0 0.2271295 0 1.237391)
(9.829862 -0.6252491 0 0.2476849 0 1.288355)
(9.749138 -0.6457078 0 0.2682486 0 1.333638)
(9.629537 -0.6634642 0 0.2887241 0 1.373499)
(9.4786 -0.6787656 0 0.3090247 0 1.40824)
(9.302942 -0.6918556 0 0.3290725 0 1.438191)
(9.10826 -0.7029659 0 0.3487983 0 1.463687)
(8.89938 -0.712312 0 0.3681414 0 1.485065)
(8.680334 -0.7200892 0 0.3870494 0 1.50265)
(8.454441 -0.726473 0 0.4054791 0 1.516755)
(8.224401 -0.7316173 0 0.4233947 0 1.527676)
(7.992394 -0.7356536 0 0.4407654 0 1.535684)
(7.760154 -0.7386929 0 0.4575636 0 1.541027)
(7.529047 -0.7408268 0 0.4737628 0 1.543923)
(7.300129 -0.7421296 0 0.4893374 0 1.544569)
(7.074202 -0.7426602 0 0.5042616 0 1.543135)
(6.851852 -0.7424637 0 0.5185088 0 1.539767)
(6.633487 -0.7415727 0 0.5320518 0 1.534593)
(6.41937 -0.7400092 0 0.5448619 0 1.527717)
(6.209638 -0.737785 0 0.5569091 0 1.519228)
(6.004327 -0.7349034 0 0.5681623 0 1.509195)
(5.803386 -0.7313591 0 0.5785888 0 1.497673)
(5.606691 -0.7271391 0 0.5881547 0 1.484701)
(5.414056 -0.7222226 0 0.5968252 0 1.470303)
(5.225244 -0.7165811 0 0.6045644 0 1.454494)
(5.039976 -0.7101774 0 0.6113361 0 1.437275)
(4.857938 -0.7029656 0 0.617104 0 1.418638)
(4.678795 -0.6948904 0 0.6218322 0 1.398566)
(4.502199 -0.6858875 0 0.6254865 0 1.37704)
(4.327804 -0.675886 0 0.6280348 0 1.354034)
(4.155283 -0.6648122 0 0.6294487 0 1.329526)
(3.984345 -0.6525967 0 0.6297048 0 1.3035)
(3.814754 -0.6391811 0 0.6287859 0 1.275948)
(3.646347 -0.6245235 0 0.6266821 0 1.24688)
(3.479046 -0.6085982 0 0.6233916 0 1.216321)
(3.312873 -0.5913924 0 0.6189216 0 1.18432)
(3.147957 -0.5728993 0 0.6132873 0 1.150949)
(2.984543 -0.5531111 0 0.6065106 0 1.116304)
(2.823005 -0.5320148 0 0.5986166 0 1.080506)
(2.663854 -0.5095894 0 0.5896284 0 1.0437)
(2.507759 -0.4858056 0 0.5795589 0 1.006049)
(2.355562 -0.4606253 0 0.5684008 0 0.9677376)
(2.208294 -0.4340022 0 0.5560917 0 0.9289534)
(2.067194 -0.4058826 0 0.5425182 0 0.8898789)
(1.933734 -0.3760873 0 0.5274973 0 0.850666)
(1.80861 -0.3446356 0 0.5113525 0 0.8118498)
(1.692409 -0.3115068 0 0.4947059 0 0.7741412)
(1.585976 -0.2766264 0 0.4779689 0 0.7382942)
(1.490373 -0.2399057 0 0.4624392 0 0.7050982)
(1.406821 -0.2012399 0 0.4463913 0 0.6753627)
(1.336655 -0.1605038 0 0.4380282 0 0.6498995)
(1.281303 -0.1175606 0 0.4136817 0 0.6295109)
(1.24235 -0.0722734 0 0.4346522 0 0.6150091)
(1.221632 -0.02451749 0 0.4027236 0 0.6072452)
(0.01245481 -3.517654e-06 0 1.058314e-06 0 0.0003275396)
(0.1325773 -0.0001819258 0 5.123695e-05 0 0.003489384)
(0.349689 -0.001155834 0 0.0003071912 0 0.009217452)
(0.6609251 -0.003956936 0 0.001004491 0 0.02196937)
(1.065938 -0.009796787 0 0.002415112 0 0.04312775)
(1.563047 -0.01969672 0 0.004812193 0 0.07351838)
(2.147542 -0.03410735 0 0.008443262 0 0.1138731)
(2.811563 -0.05274669 0 0.01351492 0 0.1644935)
(3.544668 -0.07459227 0 0.02019006 0 0.2253188)
(4.331709 -0.1069694 0 0.02855644 0 0.2957204)
(5.144225 -0.1509782 0 0.03859196 0 0.3740485)
(5.947423 -0.1984876 0 0.05022513 0 0.4581393)
(6.712003 -0.247708 0 0.06337331 0 0.5459141)
(7.413872 -0.2970468 0 0.07792406 0 0.6353117)
(8.035441 -0.3452618 0 0.09374311 0 0.724421)
(8.565842 -0.3914193 0 0.110681 0 0.8115738)
(9.000375 -0.4348533 0 0.1285805 0 0.8953976)
(9.339486 -0.4751274 0 0.1472825 0 0.974833)
(9.587542 -0.5119966 0 0.1666318 0 1.049123)
(9.751614 -0.5453711 0 0.1864801 0 1.117783)
(9.840395 -0.5752814 0 0.2066888 0 1.18056)
(9.863313 -0.601847 0 0.2271295 0 1.237391)
(9.829862 -0.6252491 0 0.2476849 0 1.288355)
(9.749138 -0.6457078 0 0.2682486 0 1.333638)
(9.629537 -0.6634642 0 0.2887241 0 1.373499)
(9.4786 -0.6787656 0 0.3090247 0 1.40824)
(9.302942 -0.6918556 0 0.3290725 0 1.438191)
(9.10826 -0.7029659 0 0.3487983 0 1.463687)
(8.89938 -0.712312 0 0.3681414 0 1.485065)
(8.680334 -0.7200892 0 0.3870494 0 1.50265)
(8.454441 -0.726473 0 0.4054791 0 1.516755)
(8.224401 -0.7316173 0 0.4233947 0 1.527676)
(7.992394 -0.7356536 0 0.4407654 0 1.535684)
(7.760154 -0.7386929 0 0.4575636 0 1.541027)
(7.529047 -0.7408268 0 0.4737628 0 1.543923)
(7.300129 -0.7421296 0 0.4893374 0 1.544569)
(7.074202 -0.7426602 0 0.5042616 0 1.543135)
(6.851852 -0.7424637 0 0.5185088 0 1.539767)
(6.633487 -0.7415727 0 0.5320518 0 1.534593)
(6.41937 -0.7400092 0 0.5448619 0 1.527717)
(6.209638 -0.737785 0 0.5569091 0 1.519228)
(6.004327 -0.7349034 0 0.5681623 0 1.509195)
(5.803386 -0.7313591 0 0.5785888 0 1.497673)
(5.606691 -0.7271391 0 0.5881547 0 1.484701)
(5.414056 -0.7222226 0 0.5968252 0 1.470303)
(5.225244 -0.7165811 0 0.6045644 0 1.454494)
(5.039976 -0.7101774 0 0.6113361 0 1.437275)
(4.857938 -0.7029656 0 0.617104 0 1.418638)
(4.678795 -0.6948904 0 0.6218322 0 1.398566)
(4.502199 -0.6858875 0 0.6254865 0 1.37704)
(4.327804 -0.675886 0 0.6280348 0 1.354034)
(4.155283 -0.6648122 0 0.6294487 0 1.329526)
(3.984345 -0.6525967 0 0.6297048 0 1.3035)
(3.814754 -0.6391811 0 0.6287859 0 1.275948)
(3.646347 -0.6245235 0 0.6266821 0 1.24688)
(3.479046 -0.6085982 0 0.6233916 0 1.216321)
(3.312873 -0.5913924 0 0.6189216 0 1.18432)
(3.147957 -0.5728993 0 0.6132873 0 1.150949)
(2.984543 -0.5531111 0 0.6065106 0 1.116304)
(2.823005 -0.5320148 0 0.5986166 0 1.080506)
(2.663854 -0.5095894 0 0.5896284 0 1.0437)
(2.507759 -0.4858056 0 0.5795589 0 1.006049)
(2.355562 -0.4606253 0 0.5684008 0 0.9677376)
(2.208294 -0.4340022 0 0.5560917 0 0.9289534)
(2.067194 -0.4058826 0 0.5425182 0 0.8898789)
(1.933734 -0.3760873 0 0.5274973 0 0.850666)
(1.80861 -0.3446356 0 0.5113525 0 0.8118498)
(1.692409 -0.3115068 0 0.4947059 0 0.7741412)
(1.585976 -0.2766264 0 0.4779689 0 0.7382942)
(1.490373 -0.2399057 0 0.4624392 0 0.7050982)
(1.406821 -0.2012399 0 0.4463913 0 0.6753627)
(1.336655 -0.1605038 0 0.4380282 0 0.6498995)
(1.281303 -0.1175606 0 0.4136817 0 0.6295109)
(1.24235 -0.0722734 0 0.4346522 0 0.6150091)
(1.221632 -0.02451749 0 0.4027236 0 0.6072452)
)
;
    }
    wall
    {
        type            calculated;
        value           nonuniform List<symmTensor> 2((3.333333e-11 -3.200565e-10 0 9.999013e-11 0 6.666667e-11) (3.333333e-11 -3.200565e-10 0 9.999013e-11 0 6.666667e-11));
    }
    frontAndBack
    {
        type            empty;
    }
    middle
    {
        type            symmetryPlane;
        value           nonuniform List<symmTensor> 2((1.221632 0 0 0.5188633 0 0.6072452) (1.221632 0 0 0.5188633 0 0.6072452));
    }
}


// ************************************************************************* //
