/*--------------------------------*- C++ -*----------------------------------*\
| =========                 |                                                 |
| \\      /  F ield         | foam-extend: Open Source CFD                    |
|  \\    /   O peration     | Version:     4.0                                |
|   \\  /    A nd           | Web:         http://www.foam-extend.org         |
|    \\/     M anipulation  |                                                 |
\*---------------------------------------------------------------------------*/
FoamFile
{
    version     2.0;
    format      ascii;
    class       volSymmTensorField;
    location    "100";
    object      tauP;
}
// * * * * * * * * * * * * * * * * * * * * * * * * * * * * * * * * * * * * * //

dimensions      [0 2 -2 0 0 0 0];

internalField   nonuniform List<symmTensor> 
150
(
(2.232261 0.04741003 0 7.698533e-06 0 4.500052e-06)
(2.232294 0.04740926 0 7.691329e-06 0 4.489381e-06)
(2.22976 0.04739232 0 8.252057e-06 0 4.51538e-06)
(2.229793 0.0473916 0 8.246061e-06 0 4.516031e-06)
(2.22487 0.04736788 0 1.002317e-05 0 4.831404e-06)
(2.224877 0.04736709 0 1.001007e-05 0 4.830446e-06)
(2.216665 0.04733223 0 1.363175e-05 0 5.320764e-06)
(2.216658 0.04733156 0 1.36183e-05 0 5.317075e-06)
(2.203817 0.04727735 0 2.001932e-05 0 5.745119e-06)
(2.20381 0.04727689 0 2.00099e-05 0 5.741825e-06)
(2.185213 0.04720487 0 3.079143e-05 0 6.000916e-06)
(2.185209 0.0472046 0 3.078615e-05 0 5.999359e-06)
(2.160389 0.04713439 0 4.833785e-05 0 6.283146e-06)
(2.160388 0.04713425 0 4.833544e-05 0 6.28311e-06)
(2.129171 0.04709748 0 7.576703e-05 0 6.977557e-06)
(2.129171 0.04709743 0 7.576626e-05 0 6.978508e-06)
(2.08942 0.04709221 0 0.0001163578 0 7.712237e-06)
(2.08942 0.0470922 0 0.000116358 0 7.713711e-06)
(2.037127 0.04707263 0 0.0001746334 0 7.182351e-06)
(2.037128 0.04707265 0 0.000174634 0 7.184008e-06)
(1.971763 0.04703816 0 0.0002551852 0 5.03521e-06)
(1.971764 0.04703819 0 0.0002551862 0 5.036958e-06)
(1.898095 0.04706692 0 0.0003611244 0 2.487523e-06)
(1.898096 0.04706696 0 0.0003611258 0 2.489369e-06)
(1.821319 0.04723294 0 0.0004962065 0 5.513848e-07)
(1.821319 0.047233 0 0.0004962083 0 5.532954e-07)
(1.744298 0.04756113 0 0.0006637479 0 -7.009043e-07)
(1.744298 0.04756119 0 0.0006637501 0 -6.988374e-07)
(1.668666 0.0480557 0 0.0008672436 0 -1.435491e-06)
(1.668666 0.04805576 0 0.0008672464 0 -1.433469e-06)
(1.5954 0.04871231 0 0.001110569 0 -1.818337e-06)
(1.595401 0.04871237 0 0.001110572 0 -1.816397e-06)
(1.525078 0.04952157 0 0.001397906 0 -1.966992e-06)
(1.525079 0.04952163 0 0.001397909 0 -1.965279e-06)
(1.457993 0.05046931 0 0.001733555 0 -1.960227e-06)
(1.457994 0.05046938 0 0.001733559 0 -1.958428e-06)
(1.394223 0.05153622 0 0.002121681 0 -1.852414e-06)
(1.394224 0.05153629 0 0.002121686 0 -1.850887e-06)
(1.333684 0.05269771 0 0.002566028 0 -1.684681e-06)
(1.333684 0.05269777 0 0.002566033 0 -1.683216e-06)
(1.276175 0.05392422 0 0.003069603 0 -1.487463e-06)
(1.276175 0.05392428 0 0.003069608 0 -1.486064e-06)
(1.221426 0.05518201 0 0.003634363 0 -1.283622e-06)
(1.221426 0.05518205 0 0.003634368 0 -1.282327e-06)
(1.169133 0.05643425 0 0.00426091 0 -1.088624e-06)
(1.169134 0.0564343 0 0.004260915 0 -1.087368e-06)
(1.118992 0.05764249 0 0.004948231 0 -9.11916e-07)
(1.118992 0.05764253 0 0.004948237 0 -9.109587e-07)
(1.070712 0.05876803 0 0.005693497 0 -7.580192e-07)
(1.070712 0.05876806 0 0.005693503 0 -7.571354e-07)
(1.024036 0.05977349 0 0.006491947 0 -6.274766e-07)
(1.024036 0.05977352 0 0.006491953 0 -6.261556e-07)
(0.9787425 0.06062404 0 0.007336854 0 -5.179731e-07)
(0.9787427 0.06062408 0 0.007336861 0 -5.171267e-07)
(0.9346483 0.06128862 0 0.008219593 0 -4.276769e-07)
(0.9346485 0.06128866 0 0.008219602 0 -4.268753e-07)
(0.8916052 0.06174065 0 0.009129798 0 -3.53171e-07)
(0.8916053 0.06174068 0 0.009129805 0 -3.524158e-07)
(0.8494955 0.06195866 0 0.01005559 0 -2.91767e-07)
(0.849496 0.0619587 0 0.0100556 0 -2.907724e-07)
(0.8082296 0.06192662 0 0.01098389 0 -2.396403e-07)
(0.8082298 0.06192666 0 0.0109839 0 -2.391546e-07)
(0.767737 0.06163371 0 0.01190069 0 -1.959206e-07)
(0.7677372 0.06163375 0 0.0119007 0 -1.954532e-07)
(0.7279649 0.06107397 0 0.01279122 0 -1.585495e-07)
(0.7279654 0.06107399 0 0.01279123 0 -1.576347e-07)
(0.6888735 0.06024577 0 0.01364018 0 -1.255203e-07)
(0.6888736 0.06024579 0 0.01364019 0 -1.248632e-07)
(0.6504307 0.05915145 0 0.01443196 0 -9.6831e-08)
(0.6504308 0.05915147 0 0.01443197 0 -9.59642e-08)
(0.6126135 0.05779683 0 0.01515091 0 -7.088265e-08)
(0.6126139 0.05779684 0 0.01515092 0 -7.0054e-08)
(0.5754042 0.0561908 0 0.01578159 0 -4.805647e-08)
(0.5754043 0.05619081 0 0.01578159 0 -4.751384e-08)
(0.5387914 0.05434496 0 0.01630903 0 -2.741531e-08)
(0.5387915 0.05434497 0 0.01630903 0 -2.692184e-08)
(0.5027678 0.0522732 0 0.01671902 0 -9.612685e-09)
(0.5027681 0.05227322 0 0.01671903 0 -8.940586e-09)
(0.4673337 0.04999156 0 0.01699845 0 6.513401e-09)
(0.4673337 0.04999157 0 0.01699845 0 6.661044e-09)
(0.4324964 0.04751797 0 0.01713557 0 2.030877e-08)
(0.4324967 0.04751798 0 0.01713557 0 2.062794e-08)
(0.3982728 0.04487218 0 0.01712043 0 3.210592e-08)
(0.3982728 0.04487219 0 0.01712043 0 3.213813e-08)
(0.3646921 0.04207586 0 0.01694529 0 4.138301e-08)
(0.3646921 0.04207588 0 0.0169453 0 4.115449e-08)
(0.3318005 0.03915286 0 0.01660516 0 4.784556e-08)
(0.3318007 0.03915286 0 0.01660517 0 4.778604e-08)
(0.2996662 0.03612954 0 0.01609847 0 5.177913e-08)
(0.2996665 0.03612957 0 0.01609848 0 5.169448e-08)
(0.2683859 0.03303557 0 0.01542787 0 5.230549e-08)
(0.2683861 0.03303558 0 0.01542788 0 5.217613e-08)
(0.238092 0.0299047 0 0.01460132 0 4.889531e-08)
(0.2380922 0.02990472 0 0.01460133 0 4.875406e-08)
(0.2089623 0.02677588 0 0.01363325 0 4.144695e-08)
(0.2089624 0.0267759 0 0.01363326 0 4.101184e-08)
(0.1812243 0.02369397 0 0.0125458 0 2.950294e-08)
(0.1812245 0.02369397 0 0.0125458 0 2.888583e-08)
(0.1551548 0.02070974 0 0.01136963 0 1.365668e-08)
(0.155155 0.02070976 0 0.01136965 0 1.307607e-08)
(0.1310632 0.01787815 0 0.01014366 0 -4.399604e-09)
(0.1310634 0.01787818 0 0.01014368 0 -4.787903e-09)
(0.1092555 0.01525378 0 0.008912663 0 -2.167367e-08)
(0.1092557 0.01525381 0 0.008912676 0 -2.204765e-08)
(0.08997855 0.01288372 0 0.007722458 0 -3.525307e-08)
(0.08997871 0.01288374 0 0.00772247 0 -3.562567e-08)
(0.0733605 0.01079948 0 0.00661331 0 -4.27318e-08)
(0.07336062 0.0107995 0 0.006613322 0 -4.292051e-08)
(0.05937235 0.00901136 0 0.005613783 0 -4.369684e-08)
(0.05937243 0.009011372 0 0.00561379 0 -4.40954e-08)
(0.04783172 0.007508051 0 0.004737657 0 -3.995042e-08)
(0.04783178 0.007508059 0 0.004737663 0 -4.0141e-08)
(0.038447 0.006261745 0 0.003985035 0 -3.367531e-08)
(0.03844704 0.006261751 0 0.003985039 0 -3.385669e-08)
(0.03087893 0.005235993 0 0.003346399 0 -2.677828e-08)
(0.03087895 0.005235995 0 0.003346401 0 -2.676705e-08)
(0.02479427 0.004392913 0 0.002807395 0 -2.06415e-08)
(0.02479429 0.004392916 0 0.002807399 0 -2.061847e-08)
(0.01989824 0.003697876 0 0.002352588 0 -1.55767e-08)
(0.01989826 0.003697876 0 0.002352588 0 -1.556151e-08)
(0.01594665 0.003121558 0 0.001967641 0 -1.163295e-08)
(0.01594666 0.00312156 0 0.001967642 0 -1.164346e-08)
(0.01274501 0.00264026 0 0.001640272 0 -8.660826e-09)
(0.01274501 0.002640261 0 0.001640273 0 -8.697346e-09)
(0.01014164 0.002235298 0 0.001360385 0 -6.711475e-09)
(0.01014164 0.0022353 0 0.001360385 0 -6.768064e-09)
(0.008020008 0.001892284 0 0.001120088 0 -4.93942e-09)
(0.008020007 0.001892284 0 0.001120088 0 -5.204532e-09)
(0.006289214 0.001599946 0 0.0009129879 0 -3.903969e-09)
(0.006289214 0.001599947 0 0.000912988 0 -3.981322e-09)
(0.00487414 0.001348791 0 0.0007333354 0 -3.35403e-09)
(0.004874143 0.001348791 0 0.0007333355 0 -3.409065e-09)
(0.003718979 0.001131553 0 0.0005783534 0 -3.098468e-09)
(0.003718981 0.001131553 0 0.0005783537 0 -3.054749e-09)
(0.002776685 0.0009416731 0 0.0004452209 0 -3.335571e-09)
(0.002776689 0.0009416736 0 0.0004452228 0 -2.648347e-09)
(0.002014155 0.0007744653 0 0.000332748 0 -3.41458e-09)
(0.002014156 0.0007744658 0 0.0003327499 0 -2.129889e-09)
(0.001395949 0.0006246338 0 0.0002357265 0 -3.506261e-09)
(0.00139595 0.0006246341 0 0.0002357269 0 -1.414009e-09)
(0.0009260755 0.0004925654 0 0.000163766 0 -3.245611e-10)
(0.0009260724 0.0004925647 0 0.0001637659 0 1.168859e-09)
(0.0005182919 0.0003668308 0 8.3119e-05 0 1.972978e-09)
(0.0005182876 0.0003668296 0 8.31166e-05 0 -1.210717e-09)
(0.0003597941 0.0002648354 0 9.210327e-05 0 3.522158e-09)
(0.0003597908 0.0002648356 0 9.21002e-05 0 -3.152297e-09)
(-2.304681e-05 0.0001469973 0 -4.702938e-05 0 -3.987777e-09)
(-2.304648e-05 0.0001469978 0 -4.702877e-05 0 -2.069297e-09)
(8.157214e-05 5.21529e-05 0 3.95232e-05 0 1.858306e-09)
(8.156887e-05 5.215248e-05 0 3.952076e-05 0 -4.474287e-10)
)
;

boundaryField
{
    leftandright
    {
        type            cyclic;
        value           nonuniform List<symmTensor> 
150
(
(2.232277 0.04740965 0 7.694931e-06 0 4.494717e-06)
(2.229777 0.04739196 0 8.249059e-06 0 4.515706e-06)
(2.224873 0.04736748 0 1.001662e-05 0 4.830925e-06)
(2.216661 0.0473319 0 1.362502e-05 0 5.318919e-06)
(2.203813 0.04727712 0 2.001461e-05 0 5.743472e-06)
(2.185211 0.04720473 0 3.078879e-05 0 6.000138e-06)
(2.160388 0.04713432 0 4.833664e-05 0 6.283128e-06)
(2.129171 0.04709745 0 7.576664e-05 0 6.978032e-06)
(2.08942 0.04709221 0 0.0001163579 0 7.712974e-06)
(2.037128 0.04707264 0 0.0001746337 0 7.183179e-06)
(1.971764 0.04703818 0 0.0002551857 0 5.036084e-06)
(1.898095 0.04706694 0 0.0003611251 0 2.488446e-06)
(1.821319 0.04723297 0 0.0004962074 0 5.523401e-07)
(1.744298 0.04756116 0 0.000663749 0 -6.998709e-07)
(1.668666 0.04805573 0 0.000867245 0 -1.43448e-06)
(1.595401 0.04871234 0 0.00111057 0 -1.817367e-06)
(1.525079 0.0495216 0 0.001397908 0 -1.966135e-06)
(1.457994 0.05046934 0 0.001733557 0 -1.959328e-06)
(1.394224 0.05153626 0 0.002121684 0 -1.851651e-06)
(1.333684 0.05269774 0 0.002566031 0 -1.683948e-06)
(1.276175 0.05392425 0 0.003069605 0 -1.486763e-06)
(1.221426 0.05518203 0 0.003634365 0 -1.282975e-06)
(1.169133 0.05643428 0 0.004260912 0 -1.087996e-06)
(1.118992 0.05764251 0 0.004948234 0 -9.114373e-07)
(1.070712 0.05876805 0 0.0056935 0 -7.575773e-07)
(1.024036 0.0597735 0 0.00649195 0 -6.268161e-07)
(0.9787426 0.06062406 0 0.007336857 0 -5.175499e-07)
(0.9346484 0.06128864 0 0.008219598 0 -4.272761e-07)
(0.8916053 0.06174067 0 0.009129802 0 -3.527934e-07)
(0.8494957 0.06195868 0 0.01005559 0 -2.912697e-07)
(0.8082297 0.06192664 0 0.01098389 0 -2.393974e-07)
(0.7677371 0.06163373 0 0.0119007 0 -1.956869e-07)
(0.7279652 0.06107398 0 0.01279123 0 -1.580921e-07)
(0.6888736 0.06024578 0 0.01364018 0 -1.251918e-07)
(0.6504307 0.05915146 0 0.01443196 0 -9.63976e-08)
(0.6126137 0.05779684 0 0.01515091 0 -7.046832e-08)
(0.5754043 0.05619081 0 0.01578159 0 -4.778515e-08)
(0.5387915 0.05434497 0 0.01630903 0 -2.716857e-08)
(0.502768 0.05227321 0 0.01671903 0 -9.276635e-09)
(0.4673337 0.04999157 0 0.01699845 0 6.587223e-09)
(0.4324965 0.04751797 0 0.01713557 0 2.046836e-08)
(0.3982728 0.04487219 0 0.01712043 0 3.212202e-08)
(0.3646921 0.04207587 0 0.01694529 0 4.126875e-08)
(0.3318006 0.03915286 0 0.01660516 0 4.78158e-08)
(0.2996663 0.03612956 0 0.01609847 0 5.173681e-08)
(0.268386 0.03303557 0 0.01542788 0 5.224081e-08)
(0.2380921 0.02990471 0 0.01460132 0 4.882468e-08)
(0.2089623 0.02677589 0 0.01363325 0 4.12294e-08)
(0.1812244 0.02369397 0 0.0125458 0 2.919439e-08)
(0.1551549 0.02070975 0 0.01136964 0 1.336638e-08)
(0.1310633 0.01787817 0 0.01014367 0 -4.593753e-09)
(0.1092556 0.01525379 0 0.00891267 0 -2.186066e-08)
(0.08997863 0.01288373 0 0.007722464 0 -3.543937e-08)
(0.07336056 0.01079949 0 0.006613316 0 -4.282616e-08)
(0.05937239 0.009011366 0 0.005613786 0 -4.389612e-08)
(0.04783175 0.007508055 0 0.00473766 0 -4.004571e-08)
(0.03844702 0.006261748 0 0.003985037 0 -3.3766e-08)
(0.03087894 0.005235994 0 0.0033464 0 -2.677266e-08)
(0.02479428 0.004392915 0 0.002807397 0 -2.062999e-08)
(0.01989825 0.003697876 0 0.002352588 0 -1.55691e-08)
(0.01594665 0.003121559 0 0.001967642 0 -1.163821e-08)
(0.01274501 0.002640261 0 0.001640272 0 -8.679086e-09)
(0.01014164 0.002235299 0 0.001360385 0 -6.739769e-09)
(0.008020007 0.001892284 0 0.001120088 0 -5.071976e-09)
(0.006289214 0.001599946 0 0.0009129879 0 -3.942645e-09)
(0.004874141 0.001348791 0 0.0007333355 0 -3.381547e-09)
(0.00371898 0.001131553 0 0.0005783536 0 -3.076608e-09)
(0.002776687 0.0009416734 0 0.0004452219 0 -2.991959e-09)
(0.002014156 0.0007744655 0 0.0003327489 0 -2.772234e-09)
(0.001395949 0.000624634 0 0.0002357267 0 -2.460135e-09)
(0.000926074 0.0004925651 0 0.0001637659 0 4.221492e-10)
(0.0005182898 0.0003668302 0 8.31178e-05 0 3.811307e-10)
(0.0003597925 0.0002648355 0 9.210174e-05 0 1.849305e-10)
(-2.304664e-05 0.0001469975 0 -4.702908e-05 0 -3.028537e-09)
(8.15705e-05 5.215269e-05 0 3.952198e-05 0 7.054384e-10)
(2.232277 0.04740965 0 7.694931e-06 0 4.494717e-06)
(2.229777 0.04739196 0 8.249059e-06 0 4.515706e-06)
(2.224873 0.04736748 0 1.001662e-05 0 4.830925e-06)
(2.216661 0.0473319 0 1.362502e-05 0 5.318919e-06)
(2.203813 0.04727712 0 2.001461e-05 0 5.743472e-06)
(2.185211 0.04720473 0 3.078879e-05 0 6.000138e-06)
(2.160388 0.04713432 0 4.833664e-05 0 6.283128e-06)
(2.129171 0.04709745 0 7.576664e-05 0 6.978032e-06)
(2.08942 0.04709221 0 0.0001163579 0 7.712974e-06)
(2.037128 0.04707264 0 0.0001746337 0 7.183179e-06)
(1.971764 0.04703818 0 0.0002551857 0 5.036084e-06)
(1.898095 0.04706694 0 0.0003611251 0 2.488446e-06)
(1.821319 0.04723297 0 0.0004962074 0 5.523401e-07)
(1.744298 0.04756116 0 0.000663749 0 -6.998709e-07)
(1.668666 0.04805573 0 0.000867245 0 -1.43448e-06)
(1.595401 0.04871234 0 0.00111057 0 -1.817367e-06)
(1.525079 0.0495216 0 0.001397908 0 -1.966135e-06)
(1.457994 0.05046934 0 0.001733557 0 -1.959328e-06)
(1.394224 0.05153626 0 0.002121684 0 -1.851651e-06)
(1.333684 0.05269774 0 0.002566031 0 -1.683948e-06)
(1.276175 0.05392425 0 0.003069605 0 -1.486763e-06)
(1.221426 0.05518203 0 0.003634365 0 -1.282975e-06)
(1.169133 0.05643428 0 0.004260912 0 -1.087996e-06)
(1.118992 0.05764251 0 0.004948234 0 -9.114373e-07)
(1.070712 0.05876805 0 0.0056935 0 -7.575773e-07)
(1.024036 0.0597735 0 0.00649195 0 -6.268161e-07)
(0.9787426 0.06062406 0 0.007336857 0 -5.175499e-07)
(0.9346484 0.06128864 0 0.008219598 0 -4.272761e-07)
(0.8916053 0.06174067 0 0.009129802 0 -3.527934e-07)
(0.8494957 0.06195868 0 0.01005559 0 -2.912697e-07)
(0.8082297 0.06192664 0 0.01098389 0 -2.393974e-07)
(0.7677371 0.06163373 0 0.0119007 0 -1.956869e-07)
(0.7279652 0.06107398 0 0.01279123 0 -1.580921e-07)
(0.6888736 0.06024578 0 0.01364018 0 -1.251918e-07)
(0.6504307 0.05915146 0 0.01443196 0 -9.63976e-08)
(0.6126137 0.05779684 0 0.01515091 0 -7.046832e-08)
(0.5754043 0.05619081 0 0.01578159 0 -4.778515e-08)
(0.5387915 0.05434497 0 0.01630903 0 -2.716857e-08)
(0.502768 0.05227321 0 0.01671903 0 -9.276635e-09)
(0.4673337 0.04999157 0 0.01699845 0 6.587223e-09)
(0.4324965 0.04751797 0 0.01713557 0 2.046836e-08)
(0.3982728 0.04487219 0 0.01712043 0 3.212202e-08)
(0.3646921 0.04207587 0 0.01694529 0 4.126875e-08)
(0.3318006 0.03915286 0 0.01660516 0 4.78158e-08)
(0.2996663 0.03612956 0 0.01609847 0 5.173681e-08)
(0.268386 0.03303557 0 0.01542788 0 5.224081e-08)
(0.2380921 0.02990471 0 0.01460132 0 4.882468e-08)
(0.2089623 0.02677589 0 0.01363325 0 4.12294e-08)
(0.1812244 0.02369397 0 0.0125458 0 2.919439e-08)
(0.1551549 0.02070975 0 0.01136964 0 1.336638e-08)
(0.1310633 0.01787817 0 0.01014367 0 -4.593753e-09)
(0.1092556 0.01525379 0 0.00891267 0 -2.186066e-08)
(0.08997863 0.01288373 0 0.007722464 0 -3.543937e-08)
(0.07336056 0.01079949 0 0.006613316 0 -4.282616e-08)
(0.05937239 0.009011366 0 0.005613786 0 -4.389612e-08)
(0.04783175 0.007508055 0 0.00473766 0 -4.004571e-08)
(0.03844702 0.006261748 0 0.003985037 0 -3.3766e-08)
(0.03087894 0.005235994 0 0.0033464 0 -2.677266e-08)
(0.02479428 0.004392915 0 0.002807397 0 -2.062999e-08)
(0.01989825 0.003697876 0 0.002352588 0 -1.55691e-08)
(0.01594665 0.003121559 0 0.001967642 0 -1.163821e-08)
(0.01274501 0.002640261 0 0.001640272 0 -8.679086e-09)
(0.01014164 0.002235299 0 0.001360385 0 -6.739769e-09)
(0.008020007 0.001892284 0 0.001120088 0 -5.071976e-09)
(0.006289214 0.001599946 0 0.0009129879 0 -3.942645e-09)
(0.004874141 0.001348791 0 0.0007333355 0 -3.381547e-09)
(0.00371898 0.001131553 0 0.0005783536 0 -3.076608e-09)
(0.002776687 0.0009416734 0 0.0004452219 0 -2.991959e-09)
(0.002014156 0.0007744655 0 0.0003327489 0 -2.772234e-09)
(0.001395949 0.000624634 0 0.0002357267 0 -2.460135e-09)
(0.000926074 0.0004925651 0 0.0001637659 0 4.221492e-10)
(0.0005182898 0.0003668302 0 8.31178e-05 0 3.811307e-10)
(0.0003597925 0.0002648355 0 9.210174e-05 0 1.849305e-10)
(-2.304664e-05 0.0001469975 0 -4.702908e-05 0 -3.028537e-09)
(8.15705e-05 5.215269e-05 0 3.952198e-05 0 7.054384e-10)
)
;
    }
    wall
    {
        type            calculated;
        value           nonuniform List<symmTensor> 2((2.232261 0.04741003 0 7.698533e-06 0 4.500052e-06) (2.232294 0.04740926 0 7.691329e-06 0 4.489381e-06));
    }
    frontAndBack
    {
        type            empty;
    }
    middle
    {
        type            symmetryPlane;
        value           nonuniform List<symmTensor> 2((8.157214e-05 0 0 3.95232e-05 0 1.858306e-09) (8.156887e-05 0 0 3.952076e-05 0 -4.474287e-10));
    }
}


// ************************************************************************* //
