/*--------------------------------*- C++ -*----------------------------------*\
| =========                 |                                                 |
| \\      /  F ield         | foam-extend: Open Source CFD                    |
|  \\    /   O peration     | Version:     4.0                                |
|   \\  /    A nd           | Web:         http://www.foam-extend.org         |
|    \\/     M anipulation  |                                                 |
\*---------------------------------------------------------------------------*/
FoamFile
{
    version     2.0;
    format      ascii;
    class       volScalarField;
    location    "100";
    object      trC;
}
// * * * * * * * * * * * * * * * * * * * * * * * * * * * * * * * * * * * * * //

dimensions      [0 0 0 0 0 0 0];

internalField   nonuniform List<scalar> 
150
(
499.5767
499.58
499.3283
499.3315
498.8417
498.8423
498.0226
498.022
496.7334
496.7327
494.852
494.8516
492.3144
492.3142
489.0783
489.0783
484.883
484.8831
479.2324
479.2324
471.9499
471.9499
463.4357
463.4358
454.1975
454.1975
444.5325
444.5326
434.6305
434.6307
424.6255
424.6257
414.6172
414.6173
404.6781
404.6782
394.8563
394.8564
385.1771
385.1772
375.6464
375.6464
366.2544
366.2544
356.9802
356.9802
347.7959
347.7959
338.6704
338.6705
329.5724
329.5725
320.4721
320.4722
311.3423
311.3424
302.1591
302.1591
292.9015
292.9016
283.5519
283.5519
274.0947
274.0947
264.5165
264.5166
254.8054
254.8055
244.9502
244.9502
234.9406
234.9407
224.7671
224.7672
214.4212
214.4212
203.8949
203.895
193.1824
193.1824
182.28
182.2801
171.1879
171.1879
159.9113
159.9113
148.4638
148.4638
136.8696
136.8697
125.1688
125.1689
113.4219
113.422
101.7172
101.7173
90.17605
90.17612
78.95632
78.95641
68.2483
68.24839
58.25846
58.25855
49.18024
49.18031
41.15757
41.15763
34.25573
34.25577
28.45323
28.45326
23.65793
23.65795
19.73707
19.73708
16.54685
16.54686
13.95273
13.95274
11.83915
11.83916
10.1117
10.1117
8.695343
8.695345
7.531719
7.531719
6.574728
6.574728
5.785662
5.785663
5.136363
5.136365
4.602684
4.602687
4.167994
4.167997
3.812366
3.812367
3.542766
3.542765
3.299599
3.299594
3.225137
3.22513
3
3
3.060342
3.060338
)
;

boundaryField
{
    leftandright
    {
        type            cyclic;
        value           nonuniform List<scalar> 
150
(
499.5783
499.3299
498.842
498.0223
496.7331
494.8518
492.3143
489.0783
484.8831
479.2324
471.9499
463.4358
454.1975
444.5325
434.6306
424.6256
414.6173
404.6782
394.8564
385.1772
375.6464
366.2544
356.9802
347.7959
338.6704
329.5725
320.4722
311.3423
302.1591
292.9015
283.5519
274.0947
264.5166
254.8054
244.9502
234.9406
224.7672
214.4212
203.895
193.1824
182.2801
171.1879
159.9113
148.4638
136.8697
125.1688
113.422
101.7173
90.17609
78.95637
68.24834
58.25851
49.18027
41.1576
34.25575
28.45324
23.65794
19.73707
16.54685
13.95274
11.83915
10.1117
8.695344
7.531719
6.574728
5.785663
5.136364
4.602685
4.167996
3.812366
3.542765
3.299596
3.225133
3
3.06034
499.5783
499.3299
498.842
498.0223
496.7331
494.8518
492.3143
489.0783
484.8831
479.2324
471.9499
463.4358
454.1975
444.5325
434.6306
424.6256
414.6173
404.6782
394.8564
385.1772
375.6464
366.2544
356.9802
347.7959
338.6704
329.5725
320.4722
311.3423
302.1591
292.9015
283.5519
274.0947
264.5166
254.8054
244.9502
234.9406
224.7672
214.4212
203.895
193.1824
182.2801
171.1879
159.9113
148.4638
136.8697
125.1688
113.422
101.7173
90.17609
78.95637
68.24834
58.25851
49.18027
41.1576
34.25575
28.45324
23.65794
19.73707
16.54685
13.95274
11.83915
10.1117
8.695344
7.531719
6.574728
5.785663
5.136364
4.602685
4.167996
3.812366
3.542765
3.299596
3.225133
3
3.06034
)
;
    }
    wall
    {
        type            calculated;
        value           nonuniform List<scalar> 2(499.5767 499.58);
    }
    frontAndBack
    {
        type            empty;
    }
    middle
    {
        type            symmetryPlane;
        value           nonuniform List<scalar> 2(3.060342 3.060338);
    }
}


// ************************************************************************* //
