/*--------------------------------*- C++ -*----------------------------------*\
| =========                 |                                                 |
| \\      /  F ield         | foam-extend: Open Source CFD                    |
|  \\    /   O peration     | Version:     4.0                                |
|   \\  /    A nd           | Web:         http://www.foam-extend.org         |
|    \\/     M anipulation  |                                                 |
\*---------------------------------------------------------------------------*/
FoamFile
{
    version     2.0;
    format      ascii;
    class       volVectorField;
    location    "100";
    object      U;
}
// * * * * * * * * * * * * * * * * * * * * * * * * * * * * * * * * * * * * * //

dimensions      [0 1 -1 0 0 0 0];

internalField   nonuniform List<vector> 
150
(
(0.2600744 4.010099e-06 0)
(0.2600744 4.00992e-06 0)
(0.7927724 1.032689e-05 0)
(0.7927725 1.032608e-05 0)
(1.351605 1.252027e-05 0)
(1.351606 1.251939e-05 0)
(1.937011 1.278515e-05 0)
(1.937011 1.27847e-05 0)
(2.548631 1.121341e-05 0)
(2.548631 1.121287e-05 0)
(3.185146 8.282021e-06 0)
(3.185146 8.281264e-06 0)
(3.844363 4.678466e-06 0)
(3.844363 4.677602e-06 0)
(4.523554 -1.928757e-07 0)
(4.523554 -1.937608e-07 0)
(5.219915 -7.135559e-06 0)
(5.219915 -7.136446e-06 0)
(5.92751 -1.278741e-05 0)
(5.92751 -1.27883e-05 0)
(6.635926 -1.434928e-05 0)
(6.635926 -1.435016e-05 0)
(7.336418 -1.436129e-05 0)
(7.336418 -1.436216e-05 0)
(8.023553 -1.433469e-05 0)
(8.023553 -1.433557e-05 0)
(8.692985 -1.366584e-05 0)
(8.692985 -1.36667e-05 0)
(9.341394 -1.235977e-05 0)
(9.341394 -1.236062e-05 0)
(9.966398 -1.062908e-05 0)
(9.966398 -1.062994e-05 0)
(10.56644 -8.699251e-06 0)
(10.56644 -8.700079e-06 0)
(11.14069 -6.748726e-06 0)
(11.14069 -6.749517e-06 0)
(11.6889 -4.904785e-06 0)
(11.6889 -4.905575e-06 0)
(12.2113 -3.246674e-06 0)
(12.2113 -3.247433e-06 0)
(12.70853 -1.81317e-06 0)
(12.70853 -1.813905e-06 0)
(13.18149 -6.131919e-07 0)
(13.18149 -6.138847e-07 0)
(13.63128 3.640059e-07 0)
(13.63128 3.633915e-07 0)
(14.05914 1.140394e-06 0)
(14.05914 1.139787e-06 0)
(14.46637 1.743117e-06 0)
(14.46637 1.742563e-06 0)
(14.85434 2.20072e-06 0)
(14.85434 2.200265e-06 0)
(15.22437 2.541311e-06 0)
(15.22437 2.540925e-06 0)
(15.57779 2.792651e-06 0)
(15.57779 2.792248e-06 0)
(15.91584 2.978889e-06 0)
(15.91584 2.978591e-06 0)
(16.23973 3.090776e-06 0)
(16.23973 3.090588e-06 0)
(16.55059 3.103069e-06 0)
(16.55059 3.102888e-06 0)
(16.84947 3.032113e-06 0)
(16.84947 3.032009e-06 0)
(17.13735 2.914393e-06 0)
(17.13735 2.914327e-06 0)
(17.41513 2.77239e-06 0)
(17.41513 2.7724e-06 0)
(17.68363 2.619092e-06 0)
(17.68363 2.619171e-06 0)
(17.94362 2.462617e-06 0)
(17.94362 2.462734e-06 0)
(18.1958 2.30822e-06 0)
(18.1958 2.30837e-06 0)
(18.44081 2.158977e-06 0)
(18.44081 2.159188e-06 0)
(18.67924 2.016824e-06 0)
(18.67924 2.017033e-06 0)
(18.91163 1.882941e-06 0)
(18.91163 1.883146e-06 0)
(19.13847 1.757405e-06 0)
(19.13847 1.757671e-06 0)
(19.36023 1.639908e-06 0)
(19.36023 1.640237e-06 0)
(19.5773 1.529898e-06 0)
(19.5773 1.530184e-06 0)
(19.79007 1.426315e-06 0)
(19.79007 1.426628e-06 0)
(19.99888 1.327747e-06 0)
(19.99888 1.328054e-06 0)
(20.20404 1.233233e-06 0)
(20.20404 1.233586e-06 0)
(20.4058 1.143561e-06 0)
(20.4058 1.143979e-06 0)
(20.60441 1.062898e-06 0)
(20.60441 1.063174e-06 0)
(20.80005 1.001668e-06 0)
(20.80005 1.002014e-06 0)
(20.99288 9.789003e-07 0)
(20.99288 9.792435e-07 0)
(21.183 1.017791e-06 0)
(21.183 1.018007e-06 0)
(21.37046 1.133664e-06 0)
(21.37046 1.133825e-06 0)
(21.55528 1.317871e-06 0)
(21.55528 1.31798e-06 0)
(21.73741 1.530344e-06 0)
(21.73741 1.530347e-06 0)
(21.91676 1.713916e-06 0)
(21.91676 1.713882e-06 0)
(22.09317 1.822236e-06 0)
(22.09317 1.822227e-06 0)
(22.26646 1.83791e-06 0)
(22.26646 1.837873e-06 0)
(22.43638 1.767946e-06 0)
(22.43638 1.767954e-06 0)
(22.60265 1.627038e-06 0)
(22.60265 1.627043e-06 0)
(22.76491 1.422028e-06 0)
(22.76491 1.422041e-06 0)
(22.92277 1.156314e-06 0)
(22.92277 1.156362e-06 0)
(23.07578 7.960614e-07 0)
(23.07578 7.960725e-07 0)
(23.22342 3.863796e-07 0)
(23.22342 3.863845e-07 0)
(23.36514 -9.107757e-07 0)
(23.36514 -9.107711e-07 0)
(23.50035 1.178873e-06 0)
(23.50035 1.178872e-06 0)
(23.62845 5.034513e-06 0)
(23.62845 5.034501e-06 0)
(23.74877 3.776971e-06 0)
(23.74877 3.776961e-06 0)
(23.86049 6.182863e-06 0)
(23.86049 6.182857e-06 0)
(23.96264 -7.312557e-06 0)
(23.96264 -7.312583e-06 0)
(24.05413 3.960128e-05 0)
(24.05413 3.960124e-05 0)
(24.13383 -0.0001290026 0)
(24.13383 -0.0001290026 0)
(24.20053 0.0004380477 0)
(24.20053 0.0004380477 0)
(24.253 -0.001466607 0)
(24.253 -0.001466607 0)
(24.28985 0.004638888 0)
(24.28985 0.004638888 0)
(24.30939 -0.009027917 0)
(24.30939 -0.009027917 0)
)
;

boundaryField
{
    leftandright
    {
        type            cyclic;
        value           nonuniform List<vector> 
150
(
(0.2600744 4.010009e-06 0)
(0.7927724 1.032649e-05 0)
(1.351605 1.251983e-05 0)
(1.937011 1.278493e-05 0)
(2.548631 1.121314e-05 0)
(3.185146 8.281642e-06 0)
(3.844363 4.678034e-06 0)
(4.523554 -1.933183e-07 0)
(5.219915 -7.136003e-06 0)
(5.92751 -1.278785e-05 0)
(6.635926 -1.434972e-05 0)
(7.336418 -1.436172e-05 0)
(8.023553 -1.433513e-05 0)
(8.692985 -1.366627e-05 0)
(9.341394 -1.23602e-05 0)
(9.966398 -1.062951e-05 0)
(10.56644 -8.699665e-06 0)
(11.14069 -6.749121e-06 0)
(11.6889 -4.90518e-06 0)
(12.2113 -3.247053e-06 0)
(12.70853 -1.813537e-06 0)
(13.18149 -6.135383e-07 0)
(13.63128 3.636987e-07 0)
(14.05914 1.140091e-06 0)
(14.46637 1.74284e-06 0)
(14.85434 2.200492e-06 0)
(15.22437 2.541118e-06 0)
(15.57779 2.792449e-06 0)
(15.91584 2.97874e-06 0)
(16.23973 3.090682e-06 0)
(16.55059 3.102978e-06 0)
(16.84947 3.032061e-06 0)
(17.13735 2.91436e-06 0)
(17.41513 2.772395e-06 0)
(17.68363 2.619131e-06 0)
(17.94362 2.462676e-06 0)
(18.1958 2.308295e-06 0)
(18.44081 2.159083e-06 0)
(18.67924 2.016928e-06 0)
(18.91163 1.883044e-06 0)
(19.13847 1.757538e-06 0)
(19.36023 1.640072e-06 0)
(19.5773 1.530041e-06 0)
(19.79007 1.426472e-06 0)
(19.99888 1.327901e-06 0)
(20.20404 1.23341e-06 0)
(20.4058 1.14377e-06 0)
(20.60441 1.063036e-06 0)
(20.80005 1.001841e-06 0)
(20.99288 9.790719e-07 0)
(21.183 1.017899e-06 0)
(21.37046 1.133744e-06 0)
(21.55528 1.317926e-06 0)
(21.73741 1.530345e-06 0)
(21.91676 1.713899e-06 0)
(22.09317 1.822231e-06 0)
(22.26646 1.837892e-06 0)
(22.43638 1.76795e-06 0)
(22.60265 1.627041e-06 0)
(22.76491 1.422035e-06 0)
(22.92277 1.156338e-06 0)
(23.07578 7.96067e-07 0)
(23.22342 3.863821e-07 0)
(23.36514 -9.107734e-07 0)
(23.50035 1.178872e-06 0)
(23.62845 5.034507e-06 0)
(23.74877 3.776966e-06 0)
(23.86049 6.18286e-06 0)
(23.96264 -7.31257e-06 0)
(24.05413 3.960126e-05 0)
(24.13383 -0.0001290026 0)
(24.20053 0.0004380477 0)
(24.253 -0.001466607 0)
(24.28985 0.004638888 0)
(24.30939 -0.009027917 0)
(0.2600744 4.010009e-06 0)
(0.7927724 1.032649e-05 0)
(1.351605 1.251983e-05 0)
(1.937011 1.278493e-05 0)
(2.548631 1.121314e-05 0)
(3.185146 8.281642e-06 0)
(3.844363 4.678034e-06 0)
(4.523554 -1.933183e-07 0)
(5.219915 -7.136003e-06 0)
(5.92751 -1.278785e-05 0)
(6.635926 -1.434972e-05 0)
(7.336418 -1.436172e-05 0)
(8.023553 -1.433513e-05 0)
(8.692985 -1.366627e-05 0)
(9.341394 -1.23602e-05 0)
(9.966398 -1.062951e-05 0)
(10.56644 -8.699665e-06 0)
(11.14069 -6.749121e-06 0)
(11.6889 -4.90518e-06 0)
(12.2113 -3.247053e-06 0)
(12.70853 -1.813537e-06 0)
(13.18149 -6.135383e-07 0)
(13.63128 3.636987e-07 0)
(14.05914 1.140091e-06 0)
(14.46637 1.74284e-06 0)
(14.85434 2.200492e-06 0)
(15.22437 2.541118e-06 0)
(15.57779 2.792449e-06 0)
(15.91584 2.97874e-06 0)
(16.23973 3.090682e-06 0)
(16.55059 3.102978e-06 0)
(16.84947 3.032061e-06 0)
(17.13735 2.91436e-06 0)
(17.41513 2.772395e-06 0)
(17.68363 2.619131e-06 0)
(17.94362 2.462676e-06 0)
(18.1958 2.308295e-06 0)
(18.44081 2.159083e-06 0)
(18.67924 2.016928e-06 0)
(18.91163 1.883044e-06 0)
(19.13847 1.757538e-06 0)
(19.36023 1.640072e-06 0)
(19.5773 1.530041e-06 0)
(19.79007 1.426472e-06 0)
(19.99888 1.327901e-06 0)
(20.20404 1.23341e-06 0)
(20.4058 1.14377e-06 0)
(20.60441 1.063036e-06 0)
(20.80005 1.001841e-06 0)
(20.99288 9.790719e-07 0)
(21.183 1.017899e-06 0)
(21.37046 1.133744e-06 0)
(21.55528 1.317926e-06 0)
(21.73741 1.530345e-06 0)
(21.91676 1.713899e-06 0)
(22.09317 1.822231e-06 0)
(22.26646 1.837892e-06 0)
(22.43638 1.76795e-06 0)
(22.60265 1.627041e-06 0)
(22.76491 1.422035e-06 0)
(22.92277 1.156338e-06 0)
(23.07578 7.96067e-07 0)
(23.22342 3.863821e-07 0)
(23.36514 -9.107734e-07 0)
(23.50035 1.178872e-06 0)
(23.62845 5.034507e-06 0)
(23.74877 3.776966e-06 0)
(23.86049 6.18286e-06 0)
(23.96264 -7.31257e-06 0)
(24.05413 3.960126e-05 0)
(24.13383 -0.0001290026 0)
(24.20053 0.0004380477 0)
(24.253 -0.001466607 0)
(24.28985 0.004638888 0)
(24.30939 -0.009027917 0)
)
;
    }
    wall
    {
        type            fixedValue;
        value           uniform (0 0 0);
    }
    frontAndBack
    {
        type            empty;
    }
    middle
    {
        type            symmetryPlane;
        value           nonuniform List<vector> 2((24.30939 0 0) (24.30939 0 0));
    }
}


// ************************************************************************* //
