/*--------------------------------*- C++ -*----------------------------------*\
| =========                 |                                                 |
| \\      /  F ield         | foam-extend: Open Source CFD                    |
|  \\    /   O peration     | Version:     4.0                                |
|   \\  /    A nd           | Web:         http://www.foam-extend.org         |
|    \\/     M anipulation  |                                                 |
\*---------------------------------------------------------------------------*/
FoamFile
{
    version     2.0;
    format      ascii;
    class       volScalarField;
    location    "100";
    object      v2;
}
// * * * * * * * * * * * * * * * * * * * * * * * * * * * * * * * * * * * * * //

dimensions      [0 2 -2 0 0 0 0];

internalField   nonuniform List<scalar> 
150
(
1.058409e-06
1.05841e-06
5.123982e-05
5.123983e-05
0.0003071963
0.0003071963
0.001004482
0.001004483
0.002415041
0.002415042
0.004811994
0.004811995
0.008442831
0.008442833
0.01351402
0.01351402
0.02018872
0.02018872
0.02855533
0.02855534
0.03859161
0.03859161
0.05022513
0.05022514
0.06337356
0.06337357
0.07792493
0.07792495
0.09374474
0.09374476
0.1106834
0.1106834
0.1285833
0.1285833
0.1472857
0.1472857
0.1666351
0.1666351
0.1864834
0.1864835
0.2066919
0.2066919
0.2271323
0.2271323
0.2476874
0.2476875
0.2682507
0.2682508
0.2887259
0.2887259
0.3090261
0.3090261
0.3290736
0.3290737
0.3487992
0.3487992
0.368142
0.368142
0.3870496
0.3870497
0.4054789
0.405479
0.4233942
0.4233942
0.4407648
0.4407648
0.4575627
0.4575628
0.4737619
0.4737619
0.4893365
0.4893365
0.5042606
0.5042607
0.5185079
0.518508
0.5320509
0.5320509
0.544861
0.544861
0.5569083
0.5569083
0.5681615
0.5681615
0.578588
0.5785881
0.588154
0.588154
0.5968245
0.5968245
0.6045638
0.6045638
0.6113355
0.6113355
0.6171035
0.6171035
0.6218319
0.6218319
0.6254865
0.6254865
0.6280353
0.6280353
0.6294498
0.6294498
0.6297063
0.6297062
0.6287873
0.6287873
0.6266831
0.6266831
0.6233921
0.623392
0.6189214
0.6189214
0.6132866
0.6132866
0.6065094
0.6065094
0.598615
0.598615
0.5896264
0.5896264
0.5795564
0.5795564
0.5683955
0.5683955
0.5560939
0.5560939
0.5425364
0.5425363
0.5275056
0.5275056
0.5113557
0.5113557
0.4946748
0.4946748
0.4780599
0.4780599
0.4621137
0.4621137
0.447434
0.447434
0.4346013
0.4346013
0.4241696
0.4241696
0.4166718
0.4166717
0.4126321
0.412632
)
;

boundaryField
{
    leftandright
    {
        type            cyclic;
        value           nonuniform List<scalar> 
150
(
1.05841e-06
5.123982e-05
0.0003071963
0.001004483
0.002415042
0.004811995
0.008442832
0.01351402
0.02018872
0.02855534
0.03859161
0.05022513
0.06337356
0.07792494
0.09374475
0.1106834
0.1285833
0.1472857
0.1666351
0.1864834
0.2066919
0.2271323
0.2476874
0.2682508
0.2887259
0.3090261
0.3290736
0.3487992
0.368142
0.3870497
0.4054789
0.4233942
0.4407648
0.4575628
0.4737619
0.4893365
0.5042607
0.5185079
0.5320509
0.544861
0.5569083
0.5681615
0.5785881
0.588154
0.5968245
0.6045638
0.6113355
0.6171035
0.6218319
0.6254865
0.6280353
0.6294498
0.6297063
0.6287873
0.6266831
0.6233921
0.6189214
0.6132866
0.6065094
0.598615
0.5896264
0.5795564
0.5683955
0.5560939
0.5425363
0.5275056
0.5113557
0.4946748
0.4780599
0.4621137
0.447434
0.4346013
0.4241696
0.4166718
0.412632
1.05841e-06
5.123982e-05
0.0003071963
0.001004483
0.002415042
0.004811995
0.008442832
0.01351402
0.02018872
0.02855534
0.03859161
0.05022513
0.06337356
0.07792494
0.09374475
0.1106834
0.1285833
0.1472857
0.1666351
0.1864834
0.2066919
0.2271323
0.2476874
0.2682508
0.2887259
0.3090261
0.3290736
0.3487992
0.368142
0.3870497
0.4054789
0.4233942
0.4407648
0.4575628
0.4737619
0.4893365
0.5042607
0.5185079
0.5320509
0.544861
0.5569083
0.5681615
0.5785881
0.588154
0.5968245
0.6045638
0.6113355
0.6171035
0.6218319
0.6254865
0.6280353
0.6294498
0.6297063
0.6287873
0.6266831
0.6233921
0.6189214
0.6132866
0.6065094
0.598615
0.5896264
0.5795564
0.5683955
0.5560939
0.5425363
0.5275056
0.5113557
0.4946748
0.4780599
0.4621137
0.447434
0.4346013
0.4241696
0.4166718
0.412632
)
;
    }
    wall
    {
        type            fixedValue;
        value           uniform 1e-10;
    }
    frontAndBack
    {
        type            empty;
    }
    middle
    {
        type            symmetryPlane;
        value           nonuniform List<scalar> 2(0.4126321 0.412632);
    }
}


// ************************************************************************* //
