/*--------------------------------*- C++ -*----------------------------------*\
| =========                 |                                                 |
| \\      /  F ield         | foam-extend: Open Source CFD                    |
|  \\    /   O peration     | Version:     4.0                                |
|   \\  /    A nd           | Web:         http://www.foam-extend.org         |
|    \\/     M anipulation  |                                                 |
\*---------------------------------------------------------------------------*/
FoamFile
{
    version     2.0;
    format      ascii;
    class       volSymmTensorField;
    location    "100";
    object      C;
}
// * * * * * * * * * * * * * * * * * * * * * * * * * * * * * * * * * * * * * //

dimensions      [0 0 0 0 0 0 0];

internalField   nonuniform List<symmTensor> 
150
(
(1991.469 21.14884 0 0.4482315 0 0.4476808)
(1991.468 21.14881 0 0.4482311 0 0.4476811)
(1991.093 21.14815 0 0.4483163 0 0.4477311)
(1991.092 21.14812 0 0.448316 0 0.4477314)
(1990.413 21.14806 0 0.4485006 0 0.4478386)
(1990.412 21.14803 0 0.4485003 0 0.4478388)
(1989.487 21.14963 0 0.4487987 0 0.4480052)
(1989.486 21.1496 0 0.4487984 0 0.4480055)
(1988.355 21.15381 0 0.4492303 0 0.4482317)
(1988.354 21.15379 0 0.44923 0 0.4482319)
(1987.037 21.16152 0 0.4498239 0 0.4485178)
(1987.036 21.1615 0 0.4498237 0 0.4485179)
(1985.536 21.17377 0 0.4506218 0 0.4488631)
(1985.535 21.17375 0 0.4506216 0 0.4488632)
(1983.842 21.19177 0 0.4516847 0 0.4492669)
(1983.841 21.19176 0 0.4516845 0 0.449267)
(1981.937 21.21711 0 0.4530965 0 0.4497281)
(1981.937 21.21709 0 0.4530964 0 0.4497282)
(1979.806 21.25189 0 0.4549694 0 0.4502439)
(1979.806 21.25188 0 0.4549693 0 0.450244)
(1977.445 21.2989 0 0.4574466 0 0.450809)
(1977.445 21.2989 0 0.4574465 0 0.450809)
(1974.876 21.36176 0 0.4607043 0 0.4514132)
(1974.876 21.36175 0 0.4607042 0 0.4514132)
(1972.157 21.44495 0 0.4649509 0 0.4520396)
(1972.156 21.44495 0 0.4649509 0 0.4520396)
(1969.392 21.55398 0 0.4704258 0 0.4526628)
(1969.392 21.55398 0 0.4704258 0 0.4526628)
(1966.74 21.69536 0 0.4773983 0 0.4532471)
(1966.74 21.69536 0 0.4773984 0 0.453247)
(1964.416 21.8768 0 0.4861715 0 0.4537467)
(1964.415 21.8768 0 0.4861716 0 0.4537466)
(1962.688 22.10752 0 0.4970968 0 0.4541073)
(1962.687 22.10753 0 0.4970969 0 0.4541072)
(1961.865 22.39896 0 0.5106101 0 0.4542717)
(1961.865 22.39897 0 0.5106103 0 0.4542716)
(1962.245 22.76573 0 0.5273129 0 0.4541908)
(1962.245 22.76574 0 0.5273132 0 0.4541906)
(1963.952 23.22634 0 0.5481415 0 0.4538414)
(1963.951 23.22634 0 0.5481417 0 0.4538412)
(1966.488 23.80003 0 0.5746876 0 0.4532426)
(1966.487 23.80004 0 0.5746879 0 0.4532424)
(1969.356 24.50981 0 0.6098049 0 0.4524169)
(1969.355 24.50982 0 0.6098052 0 0.4524167)
(1972.903 25.37637 0 0.6543134 0 0.4513309)
(1972.901 25.37637 0 0.6543138 0 0.4513306)
(1977.924 26.4215 0 0.7095749 0 0.4499078)
(1977.923 26.42151 0 0.7095753 0 0.4499076)
(1984.606 27.66146 0 0.7774466 0 0.4481031)
(1984.605 27.66146 0 0.777447 0 0.4481029)
(1992.814 29.11143 0 0.8602896 0 0.4459233)
(1992.813 29.11143 0 0.86029 0 0.4459231)
(2002.245 30.78672 0 0.960984 0 0.4434227)
(2002.244 30.78672 0 0.9609842 0 0.4434224)
(2012.495 32.70194 0 1.082935 0 0.440693)
(2012.494 32.70193 0 1.082935 0 0.4406928)
(2023.084 34.86965 0 1.230071 0 0.4378542)
(2023.083 34.86963 0 1.230071 0 0.437854)
(2033.478 37.299 0 1.406835 0 0.4350454)
(2033.477 37.29899 0 1.406835 0 0.4350452)
(2043.121 39.99478 0 1.618165 0 0.4324158)
(2043.12 39.99477 0 1.618165 0 0.4324155)
(2051.46 42.95674 0 1.869456 0 0.4301148)
(2051.459 42.95672 0 1.869455 0 0.4301145)
(2057.983 46.17941 0 2.166512 0 0.4282833)
(2057.982 46.17939 0 2.166512 0 0.4282831)
(2062.246 49.65217 0 2.515486 0 0.4270457)
(2062.245 49.65215 0 2.515485 0 0.4270454)
(2063.885 53.35957 0 2.922798 0 0.4265038)
(2063.884 53.35954 0 2.922797 0 0.4265036)
(2062.629 57.28172 0 3.395044 0 0.4267353)
(2062.628 57.28169 0 3.395042 0 0.4267351)
(2058.294 61.39479 0 3.938877 0 0.4277931)
(2058.293 61.39476 0 3.938875 0 0.4277928)
(2050.772 65.67149 0 4.560892 0 0.4297076)
(2050.772 65.67146 0 4.560889 0 0.4297073)
(2040.025 70.0815 0 5.267469 0 0.4324903)
(2040.024 70.08146 0 5.267466 0 0.43249)
(2026.062 74.59191 0 6.064629 0 0.4361376)
(2026.062 74.59186 0 6.064624 0 0.4361373)
(2008.935 79.1677 0 6.957866 0 0.4406348)
(2008.935 79.16767 0 6.957862 0 0.4406345)
(1988.719 83.77215 0 7.951998 0 0.44596)
(1988.719 83.77213 0 7.951992 0 0.4459598)
(1965.504 88.36722 0 9.051003 0 0.4520875)
(1965.504 88.3672 0 9.050996 0 0.4520872)
(1939.384 92.91392 0 10.25788 0 0.4589902)
(1939.384 92.91391 0 10.25788 0 0.4589901)
(1910.45 97.37263 0 11.57455 0 0.4666429)
(1910.45 97.37262 0 11.57454 0 0.4666428)
(1878.782 101.7032 0 13.00166 0 0.4750234)
(1878.783 101.7032 0 13.00165 0 0.4750233)
(1844.444 105.8651 0 14.53855 0 0.4841148)
(1844.445 105.865 0 14.53854 0 0.4841146)
(1807.478 109.8172 0 16.18309 0 0.4939067)
(1807.478 109.8172 0 16.18308 0 0.4939065)
(1767.9 113.5178 0 17.9315 0 0.5043964)
(1767.9 113.5178 0 17.93149 0 0.5043961)
(1725.697 116.9235 0 19.77816 0 0.5155897)
(1725.697 116.9235 0 19.77813 0 0.5155895)
(1680.824 119.989 0 21.71519 0 0.527502)
(1680.825 119.9889 0 21.71518 0 0.5275018)
(1633.206 122.6656 0 23.73207 0 0.5401585)
(1633.206 122.6656 0 23.73204 0 0.5401583)
(1582.731 124.9007 0 25.81476 0 0.5535946)
(1582.732 124.9006 0 25.81473 0 0.5535944)
(1529.255 126.6355 0 27.94474 0 0.5678565)
(1529.256 126.6355 0 27.94471 0 0.5678561)
(1472.603 127.8043 0 30.0976 0 0.5830005)
(1472.603 127.8043 0 30.09757 0 0.5830001)
(1412.564 128.3325 0 32.24113 0 0.5990944)
(1412.564 128.3325 0 32.2411 0 0.5990941)
(1348.902 128.1355 0 34.33298 0 0.6162171)
(1348.902 128.1355 0 34.33296 0 0.6162167)
(1281.348 127.117 0 36.31783 0 0.6344594)
(1281.348 127.1171 0 36.31781 0 0.634459)
(1209.601 125.1693 0 38.1241 0 0.6539258)
(1209.601 125.1692 0 38.12409 0 0.6539253)
(1133.319 122.1711 0 39.66031 0 0.6747369)
(1133.319 122.1712 0 39.66031 0 0.6747364)
(1052.114 117.9896 0 40.81149 0 0.6970333)
(1052.115 117.9898 0 40.8115 0 0.6970327)
(965.5261 112.4781 0 41.43499 0 0.720983)
(965.5271 112.4782 0 41.43501 0 0.7209824)
(873.0089 105.4779 0 41.35824 0 0.7467858)
(873.0102 105.478 0 41.35828 0 0.7467853)
(773.8597 96.81026 0 40.37238 0 0.7746917)
(773.8613 96.81048 0 40.37244 0 0.7746911)
(667.2825 86.29121 0 38.23755 0 0.8049835)
(667.2841 86.29143 0 38.23762 0 0.8049828)
(552.1468 73.6882 0 34.66143 0 0.8380254)
(552.1483 73.6884 0 34.66151 0 0.8380249)
(427.7518 58.84942 0 29.36531 0 0.8740417)
(427.7526 58.84956 0 29.36537 0 0.8740412)
(294.0801 41.70272 0 22.08949 0 0.9129349)
(294.0804 41.70278 0 22.08952 0 0.9129346)
(163.0451 23.98648 0 13.58662 0 0.9511937)
(163.0451 23.98648 0 13.58662 0 0.9511939)
(64.88949 10.0923 0 6.289984 0 0.9801912)
(64.88944 10.09228 0 6.289979 0 0.9801917)
(22.74358 3.971209 0 2.940399 0 0.9931387)
(22.74358 3.971211 0 2.940399 0 0.99314)
(8.331911 1.696273 0 1.645703 0 0.9976879)
(8.331906 1.696272 0 1.645704 0 0.9976879)
(4.230054 1.029267 0 1.386847 0 0.9989836)
(4.230046 1.029264 0 1.386843 0 0.9989806)
(1.725993 0.4192091 0 0.987483 0 0.9997856)
(1.725996 0.4192101 0 0.987484 0 0.9997865)
(1.164622 0.1572491 0 1.066052 0 0.9999336)
(1.16462 0.1572481 0 1.066049 0 0.9999318)
)
;

boundaryField
{
    leftandright
    {
        type            cyclic;
        value           nonuniform List<symmTensor> 
150
(
(1991.468 21.14883 0 0.4482313 0 0.447681)
(1991.092 21.14813 0 0.4483161 0 0.4477313)
(1990.412 21.14804 0 0.4485004 0 0.4478387)
(1989.486 21.14962 0 0.4487986 0 0.4480054)
(1988.354 21.1538 0 0.4492301 0 0.4482318)
(1987.036 21.16151 0 0.4498238 0 0.4485179)
(1985.536 21.17376 0 0.4506217 0 0.4488632)
(1983.842 21.19176 0 0.4516846 0 0.449267)
(1981.937 21.2171 0 0.4530965 0 0.4497281)
(1979.806 21.25188 0 0.4549693 0 0.450244)
(1977.445 21.2989 0 0.4574466 0 0.450809)
(1974.876 21.36175 0 0.4607042 0 0.4514132)
(1972.157 21.44495 0 0.4649509 0 0.4520396)
(1969.392 21.55398 0 0.4704258 0 0.4526628)
(1966.74 21.69536 0 0.4773983 0 0.4532471)
(1964.416 21.8768 0 0.4861716 0 0.4537466)
(1962.688 22.10752 0 0.4970968 0 0.4541073)
(1961.865 22.39896 0 0.5106102 0 0.4542717)
(1962.245 22.76573 0 0.527313 0 0.4541907)
(1963.952 23.22634 0 0.5481416 0 0.4538413)
(1966.488 23.80004 0 0.5746877 0 0.4532425)
(1969.355 24.50981 0 0.609805 0 0.4524168)
(1972.902 25.37637 0 0.6543136 0 0.4513307)
(1977.923 26.4215 0 0.7095751 0 0.4499077)
(1984.605 27.66146 0 0.7774468 0 0.448103)
(1992.813 29.11143 0 0.8602898 0 0.4459232)
(2002.245 30.78672 0 0.9609841 0 0.4434226)
(2012.495 32.70193 0 1.082935 0 0.4406929)
(2023.083 34.86964 0 1.230071 0 0.4378541)
(2033.478 37.299 0 1.406835 0 0.4350453)
(2043.12 39.99477 0 1.618165 0 0.4324156)
(2051.459 42.95673 0 1.869455 0 0.4301147)
(2057.983 46.1794 0 2.166512 0 0.4282832)
(2062.245 49.65216 0 2.515486 0 0.4270456)
(2063.885 53.35955 0 2.922798 0 0.4265037)
(2062.629 57.28171 0 3.395043 0 0.4267352)
(2058.294 61.39478 0 3.938876 0 0.4277929)
(2050.772 65.67147 0 4.56089 0 0.4297075)
(2040.024 70.08148 0 5.267467 0 0.4324901)
(2026.062 74.59188 0 6.064626 0 0.4361374)
(2008.935 79.16769 0 6.957864 0 0.4406347)
(1988.719 83.77214 0 7.951995 0 0.4459599)
(1965.504 88.36721 0 9.051 0 0.4520874)
(1939.384 92.91392 0 10.25788 0 0.4589902)
(1910.45 97.37263 0 11.57454 0 0.4666428)
(1878.782 101.7032 0 13.00165 0 0.4750233)
(1844.444 105.8651 0 14.53855 0 0.4841147)
(1807.478 109.8172 0 16.18308 0 0.4939066)
(1767.9 113.5178 0 17.9315 0 0.5043963)
(1725.697 116.9235 0 19.77815 0 0.5155896)
(1680.825 119.9889 0 21.71519 0 0.5275019)
(1633.206 122.6656 0 23.73205 0 0.5401584)
(1582.731 124.9006 0 25.81474 0 0.5535945)
(1529.256 126.6355 0 27.94473 0 0.5678563)
(1472.603 127.8043 0 30.09759 0 0.5830003)
(1412.564 128.3325 0 32.24111 0 0.5990942)
(1348.902 128.1355 0 34.33297 0 0.6162169)
(1281.348 127.1171 0 36.31782 0 0.6344592)
(1209.601 125.1693 0 38.12409 0 0.6539256)
(1133.319 122.1711 0 39.66031 0 0.6747367)
(1052.115 117.9897 0 40.81149 0 0.697033)
(965.5266 112.4781 0 41.435 0 0.7209827)
(873.0095 105.4779 0 41.35826 0 0.7467856)
(773.8605 96.81037 0 40.37241 0 0.7746914)
(667.2833 86.29132 0 38.23758 0 0.8049832)
(552.1476 73.6883 0 34.66147 0 0.8380252)
(427.7522 58.84949 0 29.36534 0 0.8740414)
(294.0803 41.70275 0 22.08951 0 0.9129347)
(163.0451 23.98648 0 13.58662 0 0.9511938)
(64.88946 10.09229 0 6.289981 0 0.9801914)
(22.74358 3.97121 0 2.940399 0 0.9931393)
(8.331909 1.696272 0 1.645704 0 0.9976879)
(4.23005 1.029265 0 1.386845 0 0.9989821)
(1.725995 0.4192096 0 0.9874835 0 0.9997861)
(1.164621 0.1572486 0 1.06605 0 0.9999327)
(1991.468 21.14883 0 0.4482313 0 0.447681)
(1991.092 21.14813 0 0.4483161 0 0.4477313)
(1990.412 21.14804 0 0.4485004 0 0.4478387)
(1989.486 21.14962 0 0.4487986 0 0.4480054)
(1988.354 21.1538 0 0.4492301 0 0.4482318)
(1987.036 21.16151 0 0.4498238 0 0.4485179)
(1985.536 21.17376 0 0.4506217 0 0.4488632)
(1983.842 21.19176 0 0.4516846 0 0.449267)
(1981.937 21.2171 0 0.4530965 0 0.4497281)
(1979.806 21.25188 0 0.4549693 0 0.450244)
(1977.445 21.2989 0 0.4574466 0 0.450809)
(1974.876 21.36175 0 0.4607042 0 0.4514132)
(1972.157 21.44495 0 0.4649509 0 0.4520396)
(1969.392 21.55398 0 0.4704258 0 0.4526628)
(1966.74 21.69536 0 0.4773983 0 0.4532471)
(1964.416 21.8768 0 0.4861716 0 0.4537466)
(1962.688 22.10752 0 0.4970968 0 0.4541073)
(1961.865 22.39896 0 0.5106102 0 0.4542717)
(1962.245 22.76573 0 0.527313 0 0.4541907)
(1963.952 23.22634 0 0.5481416 0 0.4538413)
(1966.488 23.80004 0 0.5746877 0 0.4532425)
(1969.355 24.50981 0 0.609805 0 0.4524168)
(1972.902 25.37637 0 0.6543136 0 0.4513307)
(1977.923 26.4215 0 0.7095751 0 0.4499077)
(1984.605 27.66146 0 0.7774468 0 0.448103)
(1992.813 29.11143 0 0.8602898 0 0.4459232)
(2002.245 30.78672 0 0.9609841 0 0.4434226)
(2012.495 32.70193 0 1.082935 0 0.4406929)
(2023.083 34.86964 0 1.230071 0 0.4378541)
(2033.478 37.299 0 1.406835 0 0.4350453)
(2043.12 39.99477 0 1.618165 0 0.4324156)
(2051.459 42.95673 0 1.869455 0 0.4301147)
(2057.983 46.1794 0 2.166512 0 0.4282832)
(2062.245 49.65216 0 2.515486 0 0.4270456)
(2063.885 53.35955 0 2.922798 0 0.4265037)
(2062.629 57.28171 0 3.395043 0 0.4267352)
(2058.294 61.39478 0 3.938876 0 0.4277929)
(2050.772 65.67147 0 4.56089 0 0.4297075)
(2040.024 70.08148 0 5.267467 0 0.4324901)
(2026.062 74.59188 0 6.064626 0 0.4361374)
(2008.935 79.16769 0 6.957864 0 0.4406347)
(1988.719 83.77214 0 7.951995 0 0.4459599)
(1965.504 88.36721 0 9.051 0 0.4520874)
(1939.384 92.91392 0 10.25788 0 0.4589902)
(1910.45 97.37263 0 11.57454 0 0.4666428)
(1878.782 101.7032 0 13.00165 0 0.4750233)
(1844.444 105.8651 0 14.53855 0 0.4841147)
(1807.478 109.8172 0 16.18308 0 0.4939066)
(1767.9 113.5178 0 17.9315 0 0.5043963)
(1725.697 116.9235 0 19.77815 0 0.5155896)
(1680.825 119.9889 0 21.71519 0 0.5275019)
(1633.206 122.6656 0 23.73205 0 0.5401584)
(1582.731 124.9006 0 25.81474 0 0.5535945)
(1529.256 126.6355 0 27.94473 0 0.5678563)
(1472.603 127.8043 0 30.09759 0 0.5830003)
(1412.564 128.3325 0 32.24111 0 0.5990942)
(1348.902 128.1355 0 34.33297 0 0.6162169)
(1281.348 127.1171 0 36.31782 0 0.6344592)
(1209.601 125.1693 0 38.12409 0 0.6539256)
(1133.319 122.1711 0 39.66031 0 0.6747367)
(1052.115 117.9897 0 40.81149 0 0.697033)
(965.5266 112.4781 0 41.435 0 0.7209827)
(873.0095 105.4779 0 41.35826 0 0.7467856)
(773.8605 96.81037 0 40.37241 0 0.7746914)
(667.2833 86.29132 0 38.23758 0 0.8049832)
(552.1476 73.6883 0 34.66147 0 0.8380252)
(427.7522 58.84949 0 29.36534 0 0.8740414)
(294.0803 41.70275 0 22.08951 0 0.9129347)
(163.0451 23.98648 0 13.58662 0 0.9511938)
(64.88946 10.09229 0 6.289981 0 0.9801914)
(22.74358 3.97121 0 2.940399 0 0.9931393)
(8.331909 1.696272 0 1.645704 0 0.9976879)
(4.23005 1.029265 0 1.386845 0 0.9989821)
(1.725995 0.4192096 0 0.9874835 0 0.9997861)
(1.164621 0.1572486 0 1.06605 0 0.9999327)
)
;
    }
    wall
    {
        type            zeroGradient;
    }
    frontAndBack
    {
        type            empty;
    }
    middle
    {
        type            symmetryPlane;
        value           nonuniform List<symmTensor> 2((1.164622 0 0 1.066052 0 0.9999336) (1.16462 0 0 1.066049 0 0.9999318));
    }
}


// ************************************************************************* //
