/*--------------------------------*- C++ -*----------------------------------*\
| =========                 |                                                 |
| \\      /  F ield         | foam-extend: Open Source CFD                    |
|  \\    /   O peration     | Version:     4.0                                |
|   \\  /    A nd           | Web:         http://www.foam-extend.org         |
|    \\/     M anipulation  |                                                 |
\*---------------------------------------------------------------------------*/
FoamFile
{
    version     2.0;
    format      ascii;
    class       volScalarField;
    location    "100";
    object      Ceps1;
}
// * * * * * * * * * * * * * * * * * * * * * * * * * * * * * * * * * * * * * //

dimensions      [0 0 0 0 0 0 0];

internalField   nonuniform List<scalar> 
150
(
13.77197
13.77197
7.162606
7.162605
5.117955
5.117954
4.141261
4.14126
3.572663
3.572663
3.202036
3.202036
2.94218
2.942179
2.750487
2.750486
2.603684
2.603684
2.487979
2.487979
2.39467
2.39467
2.317988
2.317988
2.253952
2.253951
2.199719
2.199718
2.153207
2.153207
2.112858
2.112858
2.077485
2.077484
2.046171
2.046171
2.018208
2.018208
1.993041
1.993041
1.97024
1.97024
1.949549
1.949549
1.930492
1.930492
1.912668
1.912668
1.895789
1.895789
1.879652
1.879651
1.864112
1.864112
1.849072
1.849072
1.834468
1.834467
1.820258
1.820258
1.80642
1.80642
1.792943
1.792943
1.779826
1.779826
1.76707
1.76707
1.754684
1.754684
1.742675
1.742675
1.73105
1.73105
1.719816
1.719816
1.708977
1.708977
1.698536
1.698536
1.688492
1.688492
1.678842
1.678842
1.669579
1.669579
1.660695
1.660695
1.65218
1.65218
1.644019
1.644019
1.636198
1.636198
1.628702
1.628702
1.621514
1.621514
1.614617
1.614617
1.607993
1.607993
1.601627
1.601627
1.595503
1.595503
1.589606
1.589606
1.583924
1.583924
1.578446
1.578446
1.573166
1.573166
1.568078
1.568078
1.56318
1.56318
1.558473
1.558473
1.553959
1.553959
1.549643
1.549643
1.54553
1.54553
1.541624
1.541624
1.537931
1.537931
1.534454
1.534454
1.531196
1.531196
1.528161
1.528161
1.525363
1.525363
1.522843
1.522843
1.52071
1.52071
1.519039
1.519039
1.517777
1.517777
1.51691
1.51691
1.516455
1.516455
)
;

boundaryField
{
    leftandright
    {
        type            cyclic;
        value           nonuniform List<scalar> 
150
(
13.77197
7.162606
5.117955
4.14126
3.572663
3.202036
2.942179
2.750487
2.603684
2.487979
2.39467
2.317988
2.253951
2.199718
2.153207
2.112858
2.077485
2.046171
2.018208
1.993041
1.97024
1.949549
1.930492
1.912668
1.895789
1.879652
1.864112
1.849072
1.834468
1.820258
1.80642
1.792943
1.779826
1.76707
1.754684
1.742675
1.73105
1.719816
1.708977
1.698536
1.688492
1.678842
1.669579
1.660695
1.65218
1.644019
1.636198
1.628702
1.621514
1.614617
1.607993
1.601627
1.595503
1.589606
1.583924
1.578446
1.573166
1.568078
1.56318
1.558473
1.553959
1.549643
1.54553
1.541624
1.537931
1.534454
1.531196
1.528161
1.525363
1.522843
1.52071
1.519039
1.517777
1.51691
1.516455
13.77197
7.162606
5.117955
4.14126
3.572663
3.202036
2.942179
2.750487
2.603684
2.487979
2.39467
2.317988
2.253951
2.199718
2.153207
2.112858
2.077485
2.046171
2.018208
1.993041
1.97024
1.949549
1.930492
1.912668
1.895789
1.879652
1.864112
1.849072
1.834468
1.820258
1.80642
1.792943
1.779826
1.76707
1.754684
1.742675
1.73105
1.719816
1.708977
1.698536
1.688492
1.678842
1.669579
1.660695
1.65218
1.644019
1.636198
1.628702
1.621514
1.614617
1.607993
1.601627
1.595503
1.589606
1.583924
1.578446
1.573166
1.568078
1.56318
1.558473
1.553959
1.549643
1.54553
1.541624
1.537931
1.534454
1.531196
1.528161
1.525363
1.522843
1.52071
1.519039
1.517777
1.51691
1.516455
)
;
    }
    wall
    {
        type            calculated;
        value           uniform 1.463;
    }
    frontAndBack
    {
        type            empty;
    }
    middle
    {
        type            symmetryPlane;
        value           nonuniform List<scalar> 2(1.516455 1.516455);
    }
}


// ************************************************************************* //
