/*--------------------------------*- C++ -*----------------------------------*\
| =========                 |                                                 |
| \\      /  F ield         | foam-extend: Open Source CFD                    |
|  \\    /   O peration     | Version:     4.0                                |
|   \\  /    A nd           | Web:         http://www.foam-extend.org         |
|    \\/     M anipulation  |                                                 |
\*---------------------------------------------------------------------------*/
FoamFile
{
    version     2.0;
    format      ascii;
    class       volSymmTensorField;
    location    "100";
    object      DiffC;
}
// * * * * * * * * * * * * * * * * * * * * * * * * * * * * * * * * * * * * * //

dimensions      [0 0 -1 0 0 0 0];

internalField   nonuniform List<symmTensor> 
150
(
(-23.64109 -0.04357725 0 0.005334622 0 0.00316368)
(-23.64057 -0.04359267 0 0.005334049 0 0.003163185)
(-16.20876 0.03634012 0 0.005413211 0 0.003105602)
(-16.20692 0.03641259 0 0.005414389 0 0.003105215)
(-10.87199 0.08577635 0 0.005377109 0 0.002765568)
(-10.87053 0.08582996 0 0.005377907 0 0.002765244)
(-7.413529 0.1179175 0 0.005510046 0 0.002390943)
(-7.412545 0.1179539 0 0.005510587 0 0.002390704)
(-5.400677 0.1400235 0 0.005909799 0 0.002029037)
(-5.400193 0.1400426 0 0.005910092 0 0.002028894)
(-4.40712 0.158166 0 0.006643754 0 0.001702598)
(-4.407085 0.1581695 0 0.006643818 0 0.001702553)
(-4.025947 0.177221 0 0.007747881 0 0.001413535)
(-4.026245 0.1772127 0 0.007747766 0 0.001413574)
(-3.883986 0.2007347 0 0.009219634 0 0.001147799)
(-3.884466 0.2007199 0 0.009219418 0 0.001147896)
(-3.658521 0.2308079 0 0.01101271 0 0.0008812138)
(-3.65904 0.2307923 0 0.01101248 0 0.0008813357)
(-3.096057 0.2680482 0 0.0130373 0 0.0005859404)
(-3.096524 0.268036 0 0.01303713 0 0.0005860583)
(-2.030426 0.3116642 0 0.01516934 0 0.0002370968)
(-2.030821 0.3116572 0 0.01516927 0 0.0002371933)
(-0.3949581 0.3597859 0 0.01727068 0 -0.0001811483)
(-0.3953101 0.3597833 0 0.0172707 0 -0.0001810801)
(1.777613 0.4100803 0 0.01921971 0 -0.0006707232)
(1.777273 0.4100803 0 0.0192198 0 -0.0006706858)
(4.37096 0.4606656 0 0.02094932 0 -0.001216455)
(4.370645 0.4606663 0 0.02094941 0 -0.001216451)
(7.211187 0.5112112 0 0.02248844 0 -0.001784132)
(7.210969 0.5112111 0 0.02248851 0 -0.001784162)
(10.08097 0.5639412 0 0.02400853 0 -0.002318284)
(10.08095 0.5639378 0 0.02400853 0 -0.002318342)
(12.67188 0.6239927 0 0.02589008 0 -0.002737675)
(12.67209 0.6239838 0 0.02589 0 -0.00273774)
(14.3714 0.6977356 0 0.02884889 0 -0.002929811)
(14.37169 0.6977244 0 0.02884877 0 -0.002929833)
(13.66163 0.7846602 0 0.03419151 0 -0.002762435)
(13.66181 0.7846561 0 0.03419142 0 -0.002762356)
(7.014557 0.8469648 0 0.04400844 0 -0.002189638)
(7.014454 0.8469649 0 0.04400842 0 -0.002189469)
(1.732866 0.9139237 0 0.06175924 0 -0.001680286)
(1.732405 0.9139189 0 0.06175922 0 -0.001680141)
(4.125969 0.9336533 0 0.0588591 0 -0.001690576)
(4.125816 0.9336548 0 0.05885905 0 -0.001690416)
(9.069179 0.9417771 0 0.05945642 0 -0.001974142)
(9.069862 0.9417744 0 0.0594561 0 -0.001974101)
(8.912346 0.8975486 0 0.06211582 0 -0.001960934)
(8.913189 0.8975475 0 0.0621155 0 -0.001960933)
(6.805238 0.8425011 0 0.06608331 0 -0.001624651)
(6.806067 0.8424991 0 0.06608303 0 -0.001624655)
(4.179982 0.7862641 0 0.07081006 0 -0.00108944)
(4.180503 0.786237 0 0.07080952 0 -0.001089413)
(1.582071 0.726237 0 0.07582235 0 -0.0004764868)
(1.581778 0.7262437 0 0.07582185 0 -0.0004763057)
(-0.7891059 0.6585827 0 0.08073634 0 0.0001297035)
(-0.7890553 0.6586012 0 0.08073735 0 0.0001295423)
(-2.834235 0.5816568 0 0.08524334 0 0.0006752252)
(-2.834038 0.5816716 0 0.08524474 0 0.0006753335)
(-4.478767 0.4964461 0 0.08910025 0 0.00112595)
(-4.478776 0.4964335 0 0.08909868 0 0.001126027)
(-5.674403 0.4055624 0 0.09210689 0 0.001462839)
(-5.674623 0.4055457 0 0.09210527 0 0.001462903)
(-6.408702 0.3125258 0 0.09412402 0 0.001678664)
(-6.409111 0.3125606 0 0.0941258 0 0.001678747)
(-6.714257 0.2209161 0 0.09505752 0 0.001778769)
(-6.713295 0.2209136 0 0.09505745 0 0.001778624)
(-6.654401 0.1338126 0 0.09486119 0 0.001777806)
(-6.654127 0.1338054 0 0.09486098 0 0.001778063)
(-6.315266 0.05354634 0 0.09351922 0 0.00169822)
(-6.314786 0.0535679 0 0.09351852 0 0.001698131)
(-5.78629 -0.01833281 0 0.09104588 0 0.001562709)
(-5.78544 -0.01833965 0 0.09104741 0 0.001562565)
(-5.148209 -0.08093898 0 0.08750237 0 0.001394032)
(-5.148871 -0.08094239 0 0.08750103 0 0.001394245)
(-4.467059 -0.1340768 0 0.08294884 0 0.00121078)
(-4.466923 -0.1340601 0 0.08294921 0 0.00121084)
(-3.792325 -0.1778483 0 0.07749147 0 0.001027749)
(-3.791667 -0.1778475 0 0.07749148 0 0.001027754)
(-3.155708 -0.2126844 0 0.07125406 0 0.0008543766)
(-3.156892 -0.2126473 0 0.0712574 0 0.0008545237)
(-2.580277 -0.2392007 0 0.06438137 0 0.0006970842)
(-2.579778 -0.239212 0 0.06438068 0 0.0006971634)
(-2.073671 -0.2581834 0 0.05703038 0 0.0005592565)
(-2.073608 -0.2581721 0 0.05703156 0 0.0005591403)
(-1.641065 -0.2704443 0 0.04936469 0 0.0004411878)
(-1.641094 -0.2704407 0 0.04936948 0 0.0004413582)
(-1.27792 -0.2768917 0 0.04157151 0 0.0003431486)
(-1.27794 -0.2769011 0 0.04156259 0 0.0003431112)
(-0.981896 -0.2784986 0 0.03374665 0 0.0002633729)
(-0.9815015 -0.2785054 0 0.03375313 0 0.0002633657)
(-0.7441444 -0.2761755 0 0.02608107 0 0.0001999878)
(-0.7447049 -0.2761604 0 0.02608406 0 0.0002000393)
(-0.5592058 -0.2706871 0 0.01864048 0 0.0001510879)
(-0.5597512 -0.2706788 0 0.01864325 0 0.0001511329)
(-0.4196168 -0.2630984 0 0.01149364 0 0.0001144806)
(-0.4189019 -0.2631074 0 0.01149383 0 0.0001144171)
(-0.315597 -0.2540935 0 0.004656985 0 8.785551e-05)
(-0.3160711 -0.2540904 0 0.004655638 0 8.799723e-05)
(-0.2433375 -0.2444025 0 -0.00190428 0 6.980628e-05)
(-0.2434572 -0.2443913 0 -0.0018931 0 6.979744e-05)
(-0.194534 -0.2345921 0 -0.00824756 0 5.815232e-05)
(-0.1946487 -0.2345948 0 -0.008252258 0 5.81843e-05)
(-0.1644341 -0.2251552 0 -0.01450897 0 5.163522e-05)
(-0.1645289 -0.2251478 0 -0.01450191 0 5.167066e-05)
(-0.1482506 -0.2164829 0 -0.02084466 0 4.893756e-05)
(-0.1483423 -0.2164792 0 -0.02084334 0 4.894896e-05)
(-0.1413343 -0.2087955 0 -0.02742799 0 4.882687e-05)
(-0.1416506 -0.2087833 0 -0.0274163 0 4.892082e-05)
(-0.1416344 -0.2021254 0 -0.03445618 0 5.074687e-05)
(-0.1413644 -0.202124 0 -0.03445483 0 5.0794e-05)
(-0.1448819 -0.1965385 0 -0.0421224 0 5.381351e-05)
(-0.1448042 -0.1965115 0 -0.04211726 0 5.387104e-05)
(-0.1509898 -0.1918306 0 -0.05058677 0 5.777048e-05)
(-0.1509881 -0.1918607 0 -0.05058314 0 5.78302e-05)
(-0.1583274 -0.1877494 0 -0.05993242 0 6.239983e-05)
(-0.1583226 -0.1877766 0 -0.05992692 0 6.242288e-05)
(-0.1680799 -0.1841925 0 -0.07020016 0 6.769416e-05)
(-0.1679954 -0.1841387 0 -0.07019532 0 6.781421e-05)
(-0.1794855 -0.1805686 0 -0.08127305 0 7.386345e-05)
(-0.1793789 -0.1806273 0 -0.0812722 0 7.39439e-05)
(-0.1955831 -0.1771502 0 -0.09307254 0 8.149051e-05)
(-0.1958669 -0.1771918 0 -0.09307643 0 8.156572e-05)
(-0.215839 -0.1733454 0 -0.1051555 0 9.027949e-05)
(-0.2159626 -0.1733466 0 -0.1051572 0 9.039976e-05)
(-0.2473017 -0.1702481 0 -0.1176741 0 0.0001019153)
(-0.2475094 -0.1702487 0 -0.1176802 0 0.0001019593)
(-0.2776016 -0.1657035 0 -0.1292606 0 0.0001128461)
(-0.2778738 -0.1657531 0 -0.1292725 0 0.0001129753)
(-0.33118 -0.1646664 0 -0.1418719 0 0.0001279434)
(-0.331471 -0.1647036 0 -0.1418847 0 0.0001280732)
(-0.3251758 -0.1534056 0 -0.1481749 0 0.0001238624)
(-0.3254374 -0.1534409 0 -0.1481886 0 0.0001239431)
(-0.2545527 -0.1351765 0 -0.1491022 0 9.035818e-05)
(-0.2546858 -0.1352014 0 -0.149112 0 9.045079e-05)
(0.7477885 0.02423929 0 -0.06752993 0 -0.0002071086)
(0.7477581 0.02423125 0 -0.06753456 0 -0.0002070409)
(2.828791 0.3379076 0 0.1172813 0 -0.0008017197)
(2.82883 0.3379123 0 0.1172826 0 -0.0008017623)
(3.948031 0.5488116 0 0.2794757 0 -0.00113417)
(3.948042 0.5488157 0 0.2794773 0 -0.001134233)
(1.75011 0.2435302 0 0.1303484 0 -0.0005304071)
(1.750105 0.2435286 0 0.1303481 0 -0.0005307407)
(0.5854428 0.09138025 0 0.05840508 0 -0.0001847412)
(0.5854441 0.09138051 0 0.05840477 0 -0.0001848483)
(0.08670179 0.004367018 0 -0.006105637 0 -2.710966e-05)
(0.08670384 0.004367643 0 -0.006104681 0 -2.627053e-05)
(0.08990405 0.01646744 0 0.02163697 0 -3.010657e-05)
(0.08990273 0.01646704 0 0.02163649 0 -3.054603e-05)
(0.02318791 -0.001854375 0 -0.003245533 0 -6.249735e-06)
(0.02318854 -0.001854056 0 -0.003245075 0 -5.860918e-06)
)
;

boundaryField
{
    leftandright
    {
        type            cyclic;
        value           nonuniform List<symmTensor> 
150
(
(-23.64083 -0.04358496 0 0.005334336 0 0.003163433)
(-16.20784 0.03637635 0 0.0054138 0 0.003105408)
(-10.87126 0.08580315 0 0.005377508 0 0.002765406)
(-7.413037 0.1179357 0 0.005510317 0 0.002390823)
(-5.400435 0.140033 0 0.005909946 0 0.002028966)
(-4.407103 0.1581678 0 0.006643786 0 0.001702575)
(-4.026096 0.1772169 0 0.007747824 0 0.001413554)
(-3.884226 0.2007273 0 0.009219526 0 0.001147848)
(-3.658781 0.2308001 0 0.01101259 0 0.0008812748)
(-3.096291 0.2680421 0 0.01303721 0 0.0005859993)
(-2.030623 0.3116607 0 0.0151693 0 0.000237145)
(-0.3951341 0.3597846 0 0.01727069 0 -0.0001811142)
(1.777443 0.4100803 0 0.01921976 0 -0.0006707045)
(4.370803 0.4606659 0 0.02094936 0 -0.001216453)
(7.211078 0.5112112 0 0.02248848 0 -0.001784147)
(10.08096 0.5639395 0 0.02400853 0 -0.002318313)
(12.67198 0.6239882 0 0.02589004 0 -0.002737707)
(14.37155 0.69773 0 0.02884883 0 -0.002929822)
(13.66172 0.7846582 0 0.03419146 0 -0.002762395)
(7.014506 0.8469648 0 0.04400843 0 -0.002189553)
(1.732636 0.9139213 0 0.06175923 0 -0.001680213)
(4.125892 0.9336541 0 0.05885908 0 -0.001690496)
(9.06952 0.9417758 0 0.05945626 0 -0.001974121)
(8.912767 0.8975481 0 0.06211566 0 -0.001960934)
(6.805652 0.8425001 0 0.06608317 0 -0.001624653)
(4.180243 0.7862505 0 0.07080979 0 -0.001089426)
(1.581925 0.7262404 0 0.0758221 0 -0.0004763962)
(-0.7890806 0.658592 0 0.08073685 0 0.0001296229)
(-2.834137 0.5816642 0 0.08524404 0 0.0006752794)
(-4.478772 0.4964398 0 0.08909947 0 0.001125989)
(-5.674513 0.4055541 0 0.09210608 0 0.001462871)
(-6.408906 0.3125432 0 0.09412491 0 0.001678706)
(-6.713776 0.2209148 0 0.09505749 0 0.001778696)
(-6.654264 0.133809 0 0.09486109 0 0.001777934)
(-6.315026 0.05355712 0 0.09351887 0 0.001698175)
(-5.785865 -0.01833623 0 0.09104665 0 0.001562637)
(-5.14854 -0.08094068 0 0.0875017 0 0.001394139)
(-4.466991 -0.1340684 0 0.08294902 0 0.00121081)
(-3.791996 -0.1778479 0 0.07749147 0 0.001027751)
(-3.1563 -0.2126659 0 0.07125573 0 0.0008544502)
(-2.580027 -0.2392063 0 0.06438103 0 0.0006971238)
(-2.07364 -0.2581777 0 0.05703097 0 0.0005591984)
(-1.64108 -0.2704425 0 0.04936708 0 0.000441273)
(-1.27793 -0.2768964 0 0.04156705 0 0.0003431299)
(-0.9816987 -0.278502 0 0.03374989 0 0.0002633693)
(-0.7444246 -0.2761679 0 0.02608257 0 0.0002000136)
(-0.5594785 -0.270683 0 0.01864186 0 0.0001511104)
(-0.4192594 -0.2631029 0 0.01149373 0 0.0001144488)
(-0.315834 -0.254092 0 0.004656311 0 8.792637e-05)
(-0.2433974 -0.2443969 0 -0.00189869 0 6.980186e-05)
(-0.1945914 -0.2345935 0 -0.008249909 0 5.816831e-05)
(-0.1644815 -0.2251515 0 -0.01450544 0 5.165294e-05)
(-0.1482965 -0.2164811 0 -0.020844 0 4.894326e-05)
(-0.1414924 -0.2087894 0 -0.02742214 0 4.887385e-05)
(-0.1414994 -0.2021247 0 -0.03445551 0 5.077043e-05)
(-0.144843 -0.196525 0 -0.04211983 0 5.384227e-05)
(-0.150989 -0.1918457 0 -0.05058495 0 5.780034e-05)
(-0.158325 -0.187763 0 -0.05992967 0 6.241135e-05)
(-0.1680376 -0.1841656 0 -0.07019774 0 6.775418e-05)
(-0.1794322 -0.1805979 0 -0.08127262 0 7.390368e-05)
(-0.195725 -0.177171 0 -0.09307448 0 8.152812e-05)
(-0.2159008 -0.173346 0 -0.1051563 0 9.033962e-05)
(-0.2474055 -0.1702484 0 -0.1176772 0 0.0001019373)
(-0.2777377 -0.1657283 0 -0.1292665 0 0.0001129107)
(-0.3313255 -0.164685 0 -0.1418783 0 0.0001280083)
(-0.3253066 -0.1534232 0 -0.1481818 0 0.0001239027)
(-0.2546193 -0.135189 0 -0.1491071 0 9.040448e-05)
(0.7477733 0.02423527 0 -0.06753224 0 -0.0002070748)
(2.82881 0.33791 0 0.117282 0 -0.000801741)
(3.948037 0.5488136 0 0.2794765 0 -0.001134201)
(1.750107 0.2435294 0 0.1303483 0 -0.0005305739)
(0.5854435 0.09138038 0 0.05840492 0 -0.0001847947)
(0.08670282 0.00436733 0 -0.006105159 0 -2.66901e-05)
(0.08990339 0.01646724 0 0.02163673 0 -3.03263e-05)
(0.02318823 -0.001854215 0 -0.003245304 0 -6.055326e-06)
(-23.64083 -0.04358496 0 0.005334336 0 0.003163433)
(-16.20784 0.03637635 0 0.0054138 0 0.003105408)
(-10.87126 0.08580315 0 0.005377508 0 0.002765406)
(-7.413037 0.1179357 0 0.005510317 0 0.002390823)
(-5.400435 0.140033 0 0.005909946 0 0.002028966)
(-4.407103 0.1581678 0 0.006643786 0 0.001702575)
(-4.026096 0.1772169 0 0.007747824 0 0.001413554)
(-3.884226 0.2007273 0 0.009219526 0 0.001147848)
(-3.658781 0.2308001 0 0.01101259 0 0.0008812748)
(-3.096291 0.2680421 0 0.01303721 0 0.0005859993)
(-2.030623 0.3116607 0 0.0151693 0 0.000237145)
(-0.3951341 0.3597846 0 0.01727069 0 -0.0001811142)
(1.777443 0.4100803 0 0.01921976 0 -0.0006707045)
(4.370803 0.4606659 0 0.02094936 0 -0.001216453)
(7.211078 0.5112112 0 0.02248848 0 -0.001784147)
(10.08096 0.5639395 0 0.02400853 0 -0.002318313)
(12.67198 0.6239882 0 0.02589004 0 -0.002737707)
(14.37155 0.69773 0 0.02884883 0 -0.002929822)
(13.66172 0.7846582 0 0.03419146 0 -0.002762395)
(7.014506 0.8469648 0 0.04400843 0 -0.002189553)
(1.732636 0.9139213 0 0.06175923 0 -0.001680213)
(4.125892 0.9336541 0 0.05885908 0 -0.001690496)
(9.06952 0.9417758 0 0.05945626 0 -0.001974121)
(8.912767 0.8975481 0 0.06211566 0 -0.001960934)
(6.805652 0.8425001 0 0.06608317 0 -0.001624653)
(4.180243 0.7862505 0 0.07080979 0 -0.001089426)
(1.581925 0.7262404 0 0.0758221 0 -0.0004763962)
(-0.7890806 0.658592 0 0.08073685 0 0.0001296229)
(-2.834137 0.5816642 0 0.08524404 0 0.0006752794)
(-4.478772 0.4964398 0 0.08909947 0 0.001125989)
(-5.674513 0.4055541 0 0.09210608 0 0.001462871)
(-6.408906 0.3125432 0 0.09412491 0 0.001678706)
(-6.713776 0.2209148 0 0.09505749 0 0.001778696)
(-6.654264 0.133809 0 0.09486109 0 0.001777934)
(-6.315026 0.05355712 0 0.09351887 0 0.001698175)
(-5.785865 -0.01833623 0 0.09104665 0 0.001562637)
(-5.14854 -0.08094068 0 0.0875017 0 0.001394139)
(-4.466991 -0.1340684 0 0.08294902 0 0.00121081)
(-3.791996 -0.1778479 0 0.07749147 0 0.001027751)
(-3.1563 -0.2126659 0 0.07125573 0 0.0008544502)
(-2.580027 -0.2392063 0 0.06438103 0 0.0006971238)
(-2.07364 -0.2581777 0 0.05703097 0 0.0005591984)
(-1.64108 -0.2704425 0 0.04936708 0 0.000441273)
(-1.27793 -0.2768964 0 0.04156705 0 0.0003431299)
(-0.9816987 -0.278502 0 0.03374989 0 0.0002633693)
(-0.7444246 -0.2761679 0 0.02608257 0 0.0002000136)
(-0.5594785 -0.270683 0 0.01864186 0 0.0001511104)
(-0.4192594 -0.2631029 0 0.01149373 0 0.0001144488)
(-0.315834 -0.254092 0 0.004656311 0 8.792637e-05)
(-0.2433974 -0.2443969 0 -0.00189869 0 6.980186e-05)
(-0.1945914 -0.2345935 0 -0.008249909 0 5.816831e-05)
(-0.1644815 -0.2251515 0 -0.01450544 0 5.165294e-05)
(-0.1482965 -0.2164811 0 -0.020844 0 4.894326e-05)
(-0.1414924 -0.2087894 0 -0.02742214 0 4.887385e-05)
(-0.1414994 -0.2021247 0 -0.03445551 0 5.077043e-05)
(-0.144843 -0.196525 0 -0.04211983 0 5.384227e-05)
(-0.150989 -0.1918457 0 -0.05058495 0 5.780034e-05)
(-0.158325 -0.187763 0 -0.05992967 0 6.241135e-05)
(-0.1680376 -0.1841656 0 -0.07019774 0 6.775418e-05)
(-0.1794322 -0.1805979 0 -0.08127262 0 7.390368e-05)
(-0.195725 -0.177171 0 -0.09307448 0 8.152812e-05)
(-0.2159008 -0.173346 0 -0.1051563 0 9.033962e-05)
(-0.2474055 -0.1702484 0 -0.1176772 0 0.0001019373)
(-0.2777377 -0.1657283 0 -0.1292665 0 0.0001129107)
(-0.3313255 -0.164685 0 -0.1418783 0 0.0001280083)
(-0.3253066 -0.1534232 0 -0.1481818 0 0.0001239027)
(-0.2546193 -0.135189 0 -0.1491071 0 9.040448e-05)
(0.7477733 0.02423527 0 -0.06753224 0 -0.0002070748)
(2.82881 0.33791 0 0.117282 0 -0.000801741)
(3.948037 0.5488136 0 0.2794765 0 -0.001134201)
(1.750107 0.2435294 0 0.1303483 0 -0.0005305739)
(0.5854435 0.09138038 0 0.05840492 0 -0.0001847947)
(0.08670282 0.00436733 0 -0.006105159 0 -2.66901e-05)
(0.08990339 0.01646724 0 0.02163673 0 -3.03263e-05)
(0.02318823 -0.001854215 0 -0.003245304 0 -6.055326e-06)
)
;
    }
    wall
    {
        type            calculated;
        value           nonuniform List<symmTensor> 2((-23.64109 -0.04357725 0 0.005334622 0 0.00316368) (-23.64057 -0.04359267 0 0.005334049 0 0.003163185));
    }
    frontAndBack
    {
        type            empty;
    }
    middle
    {
        type            symmetryPlane;
        value           nonuniform List<symmTensor> 2((0.02318791 0 0 -0.003245533 0 -6.249735e-06) (0.02318854 0 0 -0.003245075 0 -5.860918e-06));
    }
}


// ************************************************************************* //
