/*--------------------------------*- C++ -*----------------------------------*\
| =========                 |                                                 |
| \\      /  F ield         | foam-extend: Open Source CFD                    |
|  \\    /   O peration     | Version:     4.0                                |
|   \\  /    A nd           | Web:         http://www.foam-extend.org         |
|    \\/     M anipulation  |                                                 |
\*---------------------------------------------------------------------------*/
FoamFile
{
    version     2.0;
    format      ascii;
    class       volScalarField;
    location    "100";
    object      epsilon;
}
// * * * * * * * * * * * * * * * * * * * * * * * * * * * * * * * * * * * * * //

dimensions      [0 2 -3 0 0 0 0];

internalField   nonuniform List<scalar> 
150
(
14.60556
14.60556
13.93963
13.93963
13.31815
13.31815
12.74584
12.74585
12.22786
12.22786
11.76982
11.76983
11.37785
11.37785
11.05852
11.05852
10.81882
10.81882
10.66601
10.66601
10.6074
10.6074
10.65009
10.65009
10.80064
10.80064
11.06463
11.06463
11.44633
11.44634
11.94833
11.94834
12.57127
12.57127
13.31375
13.31375
14.17248
14.17249
15.14269
15.14269
16.21889
16.21889
17.39351
17.39351
18.61604
18.61604
19.83931
19.83932
21.01613
21.01614
22.10101
22.10101
23.05202
23.05202
23.83276
23.83276
24.41411
24.41411
24.77558
24.77558
24.90612
24.90612
24.80436
24.80436
24.47803
24.47803
23.94296
23.94296
23.22143
23.22143
22.34042
22.34042
21.32963
21.32963
20.21968
20.21968
19.04049
19.04049
17.82007
17.82007
16.58354
16.58354
15.35262
15.35262
14.14538
14.14538
12.97627
12.97627
11.8563
11.8563
10.79341
10.79341
9.792848
9.792848
8.857606
8.857606
7.988857
7.988857
7.186332
7.186332
6.448673
6.448673
5.773726
5.773726
5.158782
5.158782
4.600776
4.600776
4.096425
4.096425
3.642345
3.642345
3.235117
3.235117
2.871338
2.871338
2.547649
2.547649
2.260751
2.26075
2.007408
2.007408
1.784458
1.784458
1.588809
1.588809
1.417451
1.417451
1.267459
1.267459
1.136
1.136
1.020343
1.020343
0.9178937
0.9178936
0.8263185
0.8263184
0.7440582
0.7440581
0.6710125
0.6710125
0.6085865
0.6085864
0.5587207
0.5587207
0.5233849
0.5233849
0.5045414
0.5045413
)
;

boundaryField
{
    leftandright
    {
        type            cyclic;
        value           nonuniform List<scalar> 
150
(
14.60556
13.93963
13.31815
12.74584
12.22786
11.76983
11.37785
11.05852
10.81882
10.66601
10.6074
10.65009
10.80064
11.06463
11.44634
11.94833
12.57127
13.31375
14.17248
15.14269
16.21889
17.39351
18.61604
19.83931
21.01614
22.10101
23.05202
23.83276
24.41411
24.77558
24.90612
24.80436
24.47803
23.94296
23.22143
22.34042
21.32963
20.21968
19.04049
17.82007
16.58354
15.35262
14.14538
12.97627
11.8563
10.79341
9.792848
8.857606
7.988857
7.186332
6.448673
5.773726
5.158782
4.600776
4.096425
3.642345
3.235117
2.871338
2.547649
2.26075
2.007408
1.784458
1.588809
1.417451
1.267459
1.136
1.020343
0.9178936
0.8263184
0.7440582
0.6710125
0.6085864
0.5587207
0.5233849
0.5045414
14.60556
13.93963
13.31815
12.74584
12.22786
11.76983
11.37785
11.05852
10.81882
10.66601
10.6074
10.65009
10.80064
11.06463
11.44634
11.94833
12.57127
13.31375
14.17248
15.14269
16.21889
17.39351
18.61604
19.83931
21.01614
22.10101
23.05202
23.83276
24.41411
24.77558
24.90612
24.80436
24.47803
23.94296
23.22143
22.34042
21.32963
20.21968
19.04049
17.82007
16.58354
15.35262
14.14538
12.97627
11.8563
10.79341
9.792848
8.857606
7.988857
7.186332
6.448673
5.773726
5.158782
4.600776
4.096425
3.642345
3.235117
2.871338
2.547649
2.26075
2.007408
1.784458
1.588809
1.417451
1.267459
1.136
1.020343
0.9178936
0.8263184
0.7440582
0.6710125
0.6085864
0.5587207
0.5233849
0.5045414
)
;
    }
    wall
    {
        type            groovyBC;
        refValue        nonuniform List<scalar> 2(14.96737 14.96737);
        refGradient     uniform 0;
        valueFraction   uniform 1;
        value           nonuniform List<scalar> 2(14.96737 14.96737);
        valueExpression "2*nu*internalField(k)/sqr(mag(delta()))";
        gradientExpression "0";
        fractionExpression "1";
        evaluateDuringConstruction 0;
        variables       "";
        timelines       (
);
        lookuptables    (
);
    }
    frontAndBack
    {
        type            empty;
    }
    middle
    {
        type            symmetryPlane;
        value           nonuniform List<scalar> 2(0.5045414 0.5045413);
    }
}


// ************************************************************************* //
