/*--------------------------------*- C++ -*----------------------------------*\
| =========                 |                                                 |
| \\      /  F ield         | foam-extend: Open Source CFD                    |
|  \\    /   O peration     | Version:     4.0                                |
|   \\  /    A nd           | Web:         http://www.foam-extend.org         |
|    \\/     M anipulation  |                                                 |
\*---------------------------------------------------------------------------*/
FoamFile
{
    version     2.0;
    format      ascii;
    class       volScalarField;
    location    "100";
    object      epsilonV;
}
// * * * * * * * * * * * * * * * * * * * * * * * * * * * * * * * * * * * * * //

dimensions      [0 2 -3 0 0 0 0];

internalField   nonuniform List<scalar> 
150
(
4.391294e-08
4.391288e-08
2.287385e-06
2.287382e-06
1.526167e-05
1.526165e-05
5.616396e-05
5.616389e-05
0.0001525442
0.000152544
0.0003436995
0.0003436992
0.0006814239
0.0006814235
0.001229692
0.001229691
0.002062849
0.002062848
0.003262055
0.003262055
0.004910098
0.004910098
0.007085266
0.007085267
0.009855585
0.009855587
0.013275
0.013275
0.01738292
0.01738293
0.02220787
0.02220788
0.02777498
0.02777499
0.0341165
0.03411651
0.04128361
0.04128363
0.0493522
0.04935221
0.05840514
0.05840517
0.07339098
0.073391
0.09068049
0.0906805
0.110757
0.110757
0.1340302
0.1340302
0.1609295
0.1609295
0.1918884
0.1918883
0.2273138
0.2273137
0.2675429
0.2675427
0.3127911
0.312791
0.3631007
0.3631005
0.4182962
0.4182959
0.4779578
0.4779574
0.5414163
0.5414158
0.607772
0.6077713
0.6759358
0.6759352
0.7446865
0.744686
0.8127362
0.8127356
0.878797
0.8787964
0.9416416
0.9416412
1.000154
1.000153
1.053364
1.053364
1.100471
1.100471
1.140851
1.140851
1.174053
1.174052
1.199786
1.199786
1.217902
1.217903
1.228378
1.228378
1.231282
1.231282
1.226764
1.226764
1.215024
1.215024
1.196302
1.196302
1.17086
1.170859
1.138967
1.138966
1.100894
1.100893
1.056906
1.056905
1.007258
1.007258
0.9521948
0.9521947
0.8919539
0.8919533
0.8267682
0.8267689
0.7568884
0.7568894
0.682579
0.6825795
0.6041662
0.6041667
0.5220043
0.5220055
0.4366383
0.4366395
0.3485574
0.3485583
0.2589646
0.2589651
0.169374
0.1693742
0.08873087
0.0887308
0.03319882
0.03319876
0.01124172
0.01124172
0.00383076
0.003830755
0.001820843
0.001820837
0.00033593
0.0003359302
0.0001136008
0.0001136001
)
;

boundaryField
{
    leftandright
    {
        type            cyclic;
        value           nonuniform List<scalar> 
150
(
4.391291e-08
2.287384e-06
1.526166e-05
5.616392e-05
0.0001525441
0.0003436993
0.0006814237
0.001229691
0.002062849
0.003262055
0.004910098
0.007085266
0.009855586
0.013275
0.01738292
0.02220788
0.02777499
0.0341165
0.04128362
0.0493522
0.05840516
0.07339099
0.0906805
0.110757
0.1340302
0.1609295
0.1918883
0.2273137
0.2675428
0.3127911
0.3631006
0.418296
0.4779576
0.541416
0.6077716
0.6759355
0.7446862
0.8127359
0.8787967
0.9416414
1.000154
1.053364
1.100471
1.140851
1.174052
1.199786
1.217902
1.228378
1.231282
1.226764
1.215024
1.196302
1.170859
1.138966
1.100894
1.056906
1.007258
0.9521947
0.8919536
0.8267686
0.7568889
0.6825793
0.6041665
0.5220049
0.4366389
0.3485578
0.2589648
0.1693741
0.08873083
0.03319879
0.01124172
0.003830758
0.00182084
0.0003359301
0.0001136005
4.391291e-08
2.287384e-06
1.526166e-05
5.616392e-05
0.0001525441
0.0003436993
0.0006814237
0.001229691
0.002062849
0.003262055
0.004910098
0.007085266
0.009855586
0.013275
0.01738292
0.02220788
0.02777499
0.0341165
0.04128362
0.0493522
0.05840516
0.07339099
0.0906805
0.110757
0.1340302
0.1609295
0.1918883
0.2273137
0.2675428
0.3127911
0.3631006
0.418296
0.4779576
0.541416
0.6077716
0.6759355
0.7446862
0.8127359
0.8787967
0.9416414
1.000154
1.053364
1.100471
1.140851
1.174052
1.199786
1.217902
1.228378
1.231282
1.226764
1.215024
1.196302
1.170859
1.138966
1.100894
1.056906
1.007258
0.9521947
0.8919536
0.8267686
0.7568889
0.6825793
0.6041665
0.5220049
0.4366389
0.3485578
0.2589648
0.1693741
0.08873083
0.03319879
0.01124172
0.003830758
0.00182084
0.0003359301
0.0001136005
)
;
    }
    wall
    {
        type            calculated;
        value           nonuniform List<scalar> 2(4.759859e-10 4.759849e-10);
    }
    frontAndBack
    {
        type            empty;
    }
    middle
    {
        type            symmetryPlane;
        value           nonuniform List<scalar> 2(0.0001136008 0.0001136001);
    }
}


// ************************************************************************* //
