/*--------------------------------*- C++ -*----------------------------------*\
| =========                 |                                                 |
| \\      /  F ield         | foam-extend: Open Source CFD                    |
|  \\    /   O peration     | Version:     4.0                                |
|   \\  /    A nd           | Web:         http://www.foam-extend.org         |
|    \\/     M anipulation  |                                                 |
\*---------------------------------------------------------------------------*/
FoamFile
{
    version     2.0;
    format      ascii;
    class       volScalarField;
    location    "100";
    object      epsilonPlus;
}
// * * * * * * * * * * * * * * * * * * * * * * * * * * * * * * * * * * * * * //

dimensions      [0 4 -4 0 0 0 0];

internalField   nonuniform List<scalar> 
150
(
0.08114197
0.081142
0.07744237
0.07744239
0.07398971
0.07398974
0.07081024
0.07081026
0.06793256
0.06793257
0.06538791
0.06538793
0.06321028
0.06321029
0.06143623
0.06143624
0.06010457
0.06010458
0.0592556
0.05925561
0.05892998
0.05893
0.05916717
0.05916719
0.06000353
0.06000355
0.06147016
0.06147018
0.06359075
0.06359076
0.06637962
0.06637964
0.06984037
0.06984039
0.07396527
0.07396529
0.07873601
0.07873603
0.08412606
0.08412608
0.09010494
0.09010497
0.09663059
0.09663061
0.1034224
0.1034225
0.1102184
0.1102184
0.1167563
0.1167563
0.1227834
0.1227834
0.1280668
0.1280668
0.1324042
0.1324042
0.135634
0.135634
0.1376421
0.1376421
0.1383674
0.1383674
0.137802
0.137802
0.1359891
0.1359891
0.1330164
0.1330164
0.1290079
0.1290079
0.1241134
0.1241134
0.1184979
0.1184979
0.1123315
0.1123315
0.1057805
0.1057805
0.09900039
0.09900039
0.09213077
0.09213077
0.08529232
0.08529232
0.07858545
0.07858545
0.07209039
0.07209039
0.06586835
0.06586835
0.0599634
0.05996341
0.05440471
0.05440471
0.04920892
0.04920892
0.04438254
0.04438254
0.03992407
0.03992407
0.03582596
0.03582596
0.03207625
0.03207625
0.0286599
0.0286599
0.02555986
0.02555986
0.02275792
0.02275792
0.02023525
0.02023525
0.01797287
0.01797287
0.01595188
0.01595188
0.01415361
0.0141536
0.01255973
0.01255972
0.01115227
0.01115227
0.009913655
0.009913654
0.008826718
0.008826718
0.00787473
0.007874729
0.007041438
0.007041437
0.00631111
0.00631111
0.005668574
0.005668573
0.005099409
0.005099409
0.004590658
0.004590658
0.004133657
0.004133656
0.003727847
0.003727847
0.003381036
0.003381036
0.003104004
0.003104004
0.002907694
0.002907694
0.002803008
0.002803007
)
;

boundaryField
{
    leftandright
    {
        type            cyclic;
        value           nonuniform List<scalar> 
150
(
0.08114198
0.07744238
0.07398973
0.07081025
0.06793256
0.06538792
0.06321029
0.06143623
0.06010457
0.05925561
0.05892999
0.05916718
0.06000354
0.06147017
0.06359075
0.06637963
0.06984038
0.07396528
0.07873602
0.08412607
0.09010495
0.0966306
0.1034225
0.1102184
0.1167563
0.1227834
0.1280668
0.1324042
0.135634
0.1376421
0.1383674
0.137802
0.1359891
0.1330164
0.1290079
0.1241134
0.1184979
0.1123315
0.1057805
0.09900039
0.09213077
0.08529232
0.07858545
0.07209039
0.06586835
0.0599634
0.05440471
0.04920892
0.04438254
0.03992407
0.03582596
0.03207625
0.0286599
0.02555986
0.02275792
0.02023525
0.01797287
0.01595188
0.0141536
0.01255972
0.01115227
0.009913655
0.008826718
0.00787473
0.007041437
0.00631111
0.005668573
0.005099409
0.004590658
0.004133656
0.003727847
0.003381036
0.003104004
0.002907694
0.002803008
0.08114198
0.07744238
0.07398973
0.07081025
0.06793256
0.06538792
0.06321029
0.06143623
0.06010457
0.05925561
0.05892999
0.05916718
0.06000354
0.06147017
0.06359075
0.06637963
0.06984038
0.07396528
0.07873602
0.08412607
0.09010495
0.0966306
0.1034225
0.1102184
0.1167563
0.1227834
0.1280668
0.1324042
0.135634
0.1376421
0.1383674
0.137802
0.1359891
0.1330164
0.1290079
0.1241134
0.1184979
0.1123315
0.1057805
0.09900039
0.09213077
0.08529232
0.07858545
0.07209039
0.06586835
0.0599634
0.05440471
0.04920892
0.04438254
0.03992407
0.03582596
0.03207625
0.0286599
0.02555986
0.02275792
0.02023525
0.01797287
0.01595188
0.0141536
0.01255972
0.01115227
0.009913655
0.008826718
0.00787473
0.007041437
0.00631111
0.005668573
0.005099409
0.004590658
0.004133656
0.003727847
0.003381036
0.003104004
0.002907694
0.002803008
)
;
    }
    wall
    {
        type            calculated;
        value           nonuniform List<scalar> 2(0.08315203 0.08315205);
    }
    frontAndBack
    {
        type            empty;
    }
    middle
    {
        type            symmetryPlane;
        value           nonuniform List<scalar> 2(0.002803008 0.002803007);
    }
}


// ************************************************************************* //
