/*--------------------------------*- C++ -*----------------------------------*\
| =========                 |                                                 |
| \\      /  F ield         | foam-extend: Open Source CFD                    |
|  \\    /   O peration     | Version:     4.0                                |
|   \\  /    A nd           | Web:         http://www.foam-extend.org         |
|    \\/     M anipulation  |                                                 |
\*---------------------------------------------------------------------------*/
FoamFile
{
    version     2.0;
    format      ascii;
    class       volScalarField;
    location    "100";
    object      EtauP;
}
// * * * * * * * * * * * * * * * * * * * * * * * * * * * * * * * * * * * * * //

dimensions      [0 2 -4 0 0 0 0];

internalField   nonuniform List<scalar> 
150
(
5.168125e-06
5.168118e-06
0.0001367796
0.0001367794
0.0006373911
0.0006373903
0.001856778
0.001856776
0.004261362
0.004261358
0.008442587
0.00844258
0.01512175
0.01512174
0.0251501
0.02515009
0.03950309
0.03950309
0.05926857
0.05926857
0.08562995
0.08562995
0.1198476
0.1198477
0.1632439
0.163244
0.2171978
0.2171979
0.283157
0.2831571
0.362674
0.3626741
0.4574741
0.4574743
0.5695634
0.5695636
0.7013779
0.7013782
0.8558737
0.8558741
1.034136
1.034136
1.234801
1.234801
1.459679
1.459679
1.7135
1.7135
1.998486
1.998485
2.316057
2.316057
2.666632
2.666631
3.049254
3.049252
3.461156
3.461155
3.897373
3.897371
4.350518
4.350516
4.810844
4.810841
5.266633
5.266628
5.704881
5.704876
6.112224
6.112218
6.475927
6.475921
6.784826
6.784821
7.030076
7.030071
7.20564
7.205635
7.30847
7.308467
7.338438
7.338434
7.298013
7.298011
7.191822
7.191821
7.026105
7.026104
6.808188
6.808187
6.545967
6.545967
6.247487
6.247488
5.920607
5.920606
5.572727
5.572727
5.210647
5.210646
4.840457
4.840456
4.467514
4.467513
4.096446
4.096445
3.731182
3.731181
3.375011
3.375009
3.030636
3.030634
2.700234
2.700234
2.385503
2.385503
2.087718
2.087717
1.807749
1.807751
1.54613
1.546132
1.303048
1.303049
1.078445
1.078446
0.8719549
0.8719568
0.6832059
0.6832076
0.511441
0.5114423
0.3567182
0.3567189
0.2192187
0.2192189
0.1079618
0.1079617
0.03798463
0.03798456
0.01210704
0.01210704
0.003895932
0.003895927
0.001760717
0.001760712
0.0003124632
0.0003124635
0.0001033738
0.0001033732
)
;

boundaryField
{
    leftandright
    {
        type            cyclic;
        value           nonuniform List<scalar> 
150
(
5.168122e-06
0.0001367795
0.0006373907
0.001856777
0.00426136
0.008442583
0.01512175
0.02515009
0.03950309
0.05926857
0.08562995
0.1198477
0.1632439
0.2171978
0.283157
0.3626741
0.4574742
0.5695635
0.7013781
0.8558739
1.034136
1.234801
1.459679
1.7135
1.998485
2.316057
2.666632
3.049253
3.461156
3.897372
4.350517
4.810843
5.26663
5.704878
6.112221
6.475924
6.784823
7.030074
7.205637
7.308469
7.338436
7.298012
7.191821
7.026105
6.808187
6.545967
6.247488
5.920607
5.572727
5.210647
4.840457
4.467514
4.096446
3.731182
3.37501
3.030635
2.700234
2.385503
2.087717
1.80775
1.546131
1.303049
1.078445
0.8719559
0.6832067
0.5114416
0.3567185
0.2192188
0.1079618
0.0379846
0.01210704
0.003895929
0.001760715
0.0003124634
0.0001033735
5.168122e-06
0.0001367795
0.0006373907
0.001856777
0.00426136
0.008442583
0.01512175
0.02515009
0.03950309
0.05926857
0.08562995
0.1198477
0.1632439
0.2171978
0.283157
0.3626741
0.4574742
0.5695635
0.7013781
0.8558739
1.034136
1.234801
1.459679
1.7135
1.998485
2.316057
2.666632
3.049253
3.461156
3.897372
4.350517
4.810843
5.26663
5.704878
6.112221
6.475924
6.784823
7.030074
7.205637
7.308469
7.338436
7.298012
7.191821
7.026105
6.808187
6.545967
6.247488
5.920607
5.572727
5.210647
4.840457
4.467514
4.096446
3.731182
3.37501
3.030635
2.700234
2.385503
2.087717
1.80775
1.546131
1.303049
1.078445
0.8719559
0.6832067
0.5114416
0.3567185
0.2192188
0.1079618
0.0379846
0.01210704
0.003895929
0.001760715
0.0003124634
0.0001033735
)
;
    }
    wall
    {
        type            calculated;
        value           nonuniform List<scalar> 2(6.024161e-09 6.02415e-09);
    }
    frontAndBack
    {
        type            empty;
    }
    middle
    {
        type            symmetryPlane;
        value           nonuniform List<scalar> 2(0.0001033738 0.0001033732);
    }
}


// ************************************************************************* //
