/*--------------------------------*- C++ -*----------------------------------*\
| =========                 |                                                 |
| \\      /  F ield         | foam-extend: Open Source CFD                    |
|  \\    /   O peration     | Version:     4.0                                |
|   \\  /    A nd           | Web:         http://www.foam-extend.org         |
|    \\/     M anipulation  |                                                 |
\*---------------------------------------------------------------------------*/
FoamFile
{
    version     2.0;
    format      ascii;
    class       volScalarField;
    location    "100";
    object      eVyy;
}
// * * * * * * * * * * * * * * * * * * * * * * * * * * * * * * * * * * * * * //

dimensions      [0 2 -3 0 0 0 0];

internalField   nonuniform List<scalar> 
150
(
7.401324e-13
7.401317e-13
1.777035e-10
1.777033e-10
2.848317e-09
2.848314e-09
1.928197e-08
1.928196e-08
8.336915e-08
8.336909e-08
2.730525e-07
2.730524e-07
7.391659e-07
7.391658e-07
1.739442e-06
1.739442e-06
3.673134e-06
3.673134e-06
7.10959e-06
7.109592e-06
1.280343e-05
1.280343e-05
2.169083e-05
2.169084e-05
3.486666e-05
3.486668e-05
5.354939e-05
5.354943e-05
7.904752e-05
7.904758e-05
0.0001127444
0.0001127445
0.0001561167
0.0001561168
0.0002107965
0.0002107966
0.0002786778
0.000278678
0.0003620187
0.000362019
0.000463373
0.0004633734
0.000626937
0.0006269375
0.0008312862
0.0008312867
0.00108716
0.00108716
0.001406704
0.001406704
0.001804589
0.001804589
0.002298253
0.002298254
0.002907959
0.002907959
0.003656563
0.003656563
0.004568957
0.004568957
0.005671152
0.005671152
0.006989057
0.006989054
0.008547036
0.008547031
0.01036638
0.01036637
0.01246383
0.01246382
0.01485033
0.01485032
0.01752999
0.01752998
0.02049957
0.02049956
0.0237482
0.02374818
0.02725752
0.02725751
0.03100224
0.03100223
0.03495076
0.03495075
0.03906611
0.0390661
0.04330683
0.04330682
0.04762799
0.04762798
0.05198191
0.05198191
0.05631895
0.05631894
0.060588
0.06058797
0.06473665
0.06473664
0.06871137
0.06871134
0.07245707
0.07245704
0.07591669
0.07591664
0.07903032
0.07903027
0.08173404
0.08173397
0.08395862
0.08395852
0.08562806
0.08562795
0.08665821
0.08665816
0.08695561
0.08695557
0.08641734
0.08641724
0.08493101
0.08493104
0.08237847
0.08237853
0.07863816
0.07863817
0.07359486
0.07359489
0.06714199
0.0671421
0.05920972
0.05920984
0.04974193
0.04974203
0.03881462
0.03881468
0.02660287
0.02660288
0.01456571
0.0145657
0.005675628
0.005675614
0.001990411
0.00199041
0.0006974298
0.0006974286
0.0003386454
0.0003386442
6.340695e-05
6.340697e-05
2.161009e-05
2.160994e-05
)
;

boundaryField
{
    leftandright
    {
        type            cyclic;
        value           nonuniform List<scalar> 
150
(
7.401321e-13
1.777034e-10
2.848316e-09
1.928197e-08
8.336912e-08
2.730525e-07
7.391658e-07
1.739442e-06
3.673134e-06
7.109591e-06
1.280343e-05
2.169083e-05
3.486667e-05
5.354941e-05
7.904755e-05
0.0001127444
0.0001561167
0.0002107965
0.0002786779
0.0003620189
0.0004633732
0.0006269373
0.0008312865
0.00108716
0.001406704
0.001804589
0.002298253
0.002907959
0.003656563
0.004568957
0.005671152
0.006989055
0.008547034
0.01036638
0.01246383
0.01485032
0.01752999
0.02049957
0.02374819
0.02725752
0.03100223
0.03495075
0.0390661
0.04330683
0.04762799
0.05198191
0.05631894
0.06058799
0.06473664
0.06871136
0.07245705
0.07591667
0.07903029
0.08173401
0.08395857
0.08562801
0.08665819
0.08695559
0.08641729
0.08493103
0.0823785
0.07863816
0.07359488
0.06714205
0.05920978
0.04974198
0.03881465
0.02660287
0.0145657
0.005675621
0.00199041
0.0006974292
0.0003386448
6.340696e-05
2.161002e-05
7.401321e-13
1.777034e-10
2.848316e-09
1.928197e-08
8.336912e-08
2.730525e-07
7.391658e-07
1.739442e-06
3.673134e-06
7.109591e-06
1.280343e-05
2.169083e-05
3.486667e-05
5.354941e-05
7.904755e-05
0.0001127444
0.0001561167
0.0002107965
0.0002786779
0.0003620189
0.0004633732
0.0006269373
0.0008312865
0.00108716
0.001406704
0.001804589
0.002298253
0.002907959
0.003656563
0.004568957
0.005671152
0.006989055
0.008547034
0.01036638
0.01246383
0.01485032
0.01752999
0.02049957
0.02374819
0.02725752
0.03100223
0.03495075
0.0390661
0.04330683
0.04762799
0.05198191
0.05631894
0.06058799
0.06473664
0.06871136
0.07245705
0.07591667
0.07903029
0.08173401
0.08395857
0.08562801
0.08665819
0.08695559
0.08641729
0.08493103
0.0823785
0.07863816
0.07359488
0.06714205
0.05920978
0.04974198
0.03881465
0.02660287
0.0145657
0.005675621
0.00199041
0.0006974292
0.0003386448
6.340696e-05
2.161002e-05
)
;
    }
    wall
    {
        type            calculated;
        value           nonuniform List<scalar> 2(3.093909e-10 3.093902e-10);
    }
    frontAndBack
    {
        type            empty;
    }
    middle
    {
        type            symmetryPlane;
        value           nonuniform List<scalar> 2(2.161009e-05 2.160994e-05);
    }
}


// ************************************************************************* //
