/*--------------------------------*- C++ -*----------------------------------*\
| =========                 |                                                 |
| \\      /  F ield         | foam-extend: Open Source CFD                    |
|  \\    /   O peration     | Version:     4.0                                |
|   \\  /    A nd           | Web:         http://www.foam-extend.org         |
|    \\/     M anipulation  |                                                 |
\*---------------------------------------------------------------------------*/
FoamFile
{
    version     2.0;
    format      ascii;
    class       volScalarField;
    location    "100";
    object      f;
}
// * * * * * * * * * * * * * * * * * * * * * * * * * * * * * * * * * * * * * //

dimensions      [0 0 -1 0 0 0 0];

internalField   nonuniform List<scalar> 
150
(
0.008775742
0.008775742
0.02664711
0.02664712
0.04529699
0.04529699
0.06475818
0.06475819
0.0850643
0.0850643
0.1062496
0.1062496
0.1283487
0.1283487
0.1513962
0.1513962
0.1754263
0.1754263
0.2004723
0.2004723
0.2265653
0.2265653
0.2537341
0.2537341
0.282003
0.282003
0.3113911
0.3113911
0.3419098
0.3419098
0.3735609
0.3735609
0.4063336
0.4063337
0.4402015
0.4402015
0.4751183
0.4751183
0.5110138
0.5110138
0.5477883
0.5477883
0.5853091
0.5853091
0.6235023
0.6235023
0.6622746
0.6622746
0.701514
0.701514
0.7410918
0.7410918
0.7808641
0.7808641
0.8206743
0.8206743
0.8603556
0.8603556
0.8997345
0.8997345
0.9386333
0.9386333
0.9768738
0.9768738
1.01428
1.01428
1.050683
1.050683
1.085919
1.085919
1.119838
1.119838
1.1523
1.1523
1.183179
1.183179
1.212365
1.212365
1.239761
1.239761
1.265288
1.265288
1.288878
1.288878
1.310483
1.310483
1.330065
1.330065
1.347602
1.347602
1.363083
1.363083
1.376511
1.376511
1.387899
1.387899
1.397272
1.397272
1.404663
1.404663
1.410116
1.410116
1.413685
1.413685
1.415429
1.415429
1.415417
1.415417
1.413726
1.413726
1.410438
1.410438
1.405644
1.405644
1.399437
1.399437
1.391921
1.391921
1.383203
1.383203
1.373393
1.373393
1.36261
1.36261
1.350976
1.350976
1.33862
1.33862
1.325676
1.325676
1.312287
1.312287
1.29861
1.29861
1.284818
1.284818
1.271116
1.271116
1.257767
1.257767
1.245129
1.245129
1.233692
1.233692
1.224066
1.224066
1.216935
1.216935
1.213017
1.213017
)
;

boundaryField
{
    leftandright
    {
        type            cyclic;
        value           nonuniform List<scalar> 
150
(
0.008775742
0.02664711
0.04529699
0.06475818
0.0850643
0.1062496
0.1283487
0.1513962
0.1754263
0.2004723
0.2265653
0.2537341
0.282003
0.3113911
0.3419098
0.3735609
0.4063337
0.4402015
0.4751183
0.5110138
0.5477883
0.5853091
0.6235023
0.6622746
0.701514
0.7410918
0.7808641
0.8206743
0.8603556
0.8997345
0.9386333
0.9768738
1.01428
1.050683
1.085919
1.119838
1.1523
1.183179
1.212365
1.239761
1.265288
1.288878
1.310483
1.330065
1.347602
1.363083
1.376511
1.387899
1.397272
1.404663
1.410116
1.413685
1.415429
1.415417
1.413726
1.410438
1.405644
1.399437
1.391921
1.383203
1.373393
1.36261
1.350976
1.33862
1.325676
1.312287
1.29861
1.284818
1.271116
1.257767
1.245129
1.233692
1.224066
1.216935
1.213017
0.008775742
0.02664711
0.04529699
0.06475818
0.0850643
0.1062496
0.1283487
0.1513962
0.1754263
0.2004723
0.2265653
0.2537341
0.282003
0.3113911
0.3419098
0.3735609
0.4063337
0.4402015
0.4751183
0.5110138
0.5477883
0.5853091
0.6235023
0.6622746
0.701514
0.7410918
0.7808641
0.8206743
0.8603556
0.8997345
0.9386333
0.9768738
1.01428
1.050683
1.085919
1.119838
1.1523
1.183179
1.212365
1.239761
1.265288
1.288878
1.310483
1.330065
1.347602
1.363083
1.376511
1.387899
1.397272
1.404663
1.410116
1.413685
1.415429
1.415417
1.413726
1.410438
1.405644
1.399437
1.391921
1.383203
1.373393
1.36261
1.350976
1.33862
1.325676
1.312287
1.29861
1.284818
1.271116
1.257767
1.245129
1.233692
1.224066
1.216935
1.213017
)
;
    }
    wall
    {
        type            fixedValue;
        value           uniform 1e-10;
    }
    frontAndBack
    {
        type            empty;
    }
    middle
    {
        type            symmetryPlane;
        value           nonuniform List<scalar> 2(1.213017 1.213017);
    }
}


// ************************************************************************* //
