/*--------------------------------*- C++ -*----------------------------------*\
| =========                 |                                                 |
| \\      /  F ield         | foam-extend: Open Source CFD                    |
|  \\    /   O peration     | Version:     4.0                                |
|   \\  /    A nd           | Web:         http://www.foam-extend.org         |
|    \\/     M anipulation  |                                                 |
\*---------------------------------------------------------------------------*/
FoamFile
{
    version     2.0;
    format      ascii;
    class       volScalarField;
    location    "100";
    object      fp;
}
// * * * * * * * * * * * * * * * * * * * * * * * * * * * * * * * * * * * * * //

dimensions      [0 0 0 0 0 0 0];

internalField   nonuniform List<scalar> 
150
(
2.237448
2.237446
2.236925
2.236923
2.23598
2.235978
2.234694
2.234693
2.233124
2.233123
2.2313
2.231299
2.229226
2.229225
2.22689
2.226889
2.22427
2.224269
2.221346
2.221345
2.218116
2.218115
2.214613
2.214612
2.210918
2.210917
2.207175
2.207175
2.2036
2.203599
2.200479
2.200478
2.198171
2.19817
2.197084
2.197083
2.197617
2.197616
2.199938
2.199937
2.20339
2.203389
2.207314
2.207313
2.212188
2.212187
2.219115
2.219113
2.228392
2.22839
2.239894
2.239892
2.253265
2.253264
2.267997
2.267995
2.283449
2.283448
2.298873
2.298871
2.313438
2.313437
2.326287
2.326286
2.336591
2.336589
2.34361
2.343608
2.346739
2.346737
2.34554
2.345538
2.339756
2.339756
2.329306
2.329305
2.314262
2.314261
2.294829
2.294829
2.271312
2.271312
2.244082
2.244082
2.213549
2.213549
2.180133
2.180134
2.144251
2.144251
2.106291
2.106292
2.066608
2.066609
2.025515
2.025515
1.983277
1.983278
1.940119
1.94012
1.896219
1.896219
1.851717
1.851717
1.80672
1.80672
1.761308
1.761309
1.71554
1.715539
1.669455
1.669455
1.623086
1.623086
1.576456
1.576456
1.529583
1.529583
1.482476
1.482476
1.435139
1.43514
1.387561
1.387562
1.339722
1.339722
1.291565
1.291566
1.243056
1.243057
1.194083
1.194083
1.144809
1.144809
1.095672
1.095672
1.051012
1.051012
1.019604
1.019604
1.006626
1.006626
1.002222
1.002222
1.001006
1.001006
1.000198
1.000198
1.000064
1.000064
)
;

boundaryField
{
    leftandright
    {
        type            cyclic;
        value           nonuniform List<scalar> 
150
(
2.237447
2.236924
2.235979
2.234694
2.233124
2.231299
2.229225
2.22689
2.22427
2.221345
2.218116
2.214612
2.210917
2.207175
2.203599
2.200478
2.19817
2.197084
2.197616
2.199938
2.20339
2.207314
2.212187
2.219114
2.228391
2.239893
2.253264
2.267996
2.283448
2.298872
2.313437
2.326286
2.33659
2.343609
2.346738
2.345539
2.339756
2.329305
2.314261
2.294829
2.271312
2.244082
2.213549
2.180134
2.144251
2.106291
2.066609
2.025515
1.983278
1.94012
1.896219
1.851717
1.80672
1.761308
1.715539
1.669455
1.623086
1.576456
1.529583
1.482476
1.435139
1.387562
1.339722
1.291565
1.243056
1.194083
1.144809
1.095672
1.051012
1.019604
1.006626
1.002222
1.001006
1.000198
1.000064
2.237447
2.236924
2.235979
2.234694
2.233124
2.231299
2.229225
2.22689
2.22427
2.221345
2.218116
2.214612
2.210917
2.207175
2.203599
2.200478
2.19817
2.197084
2.197616
2.199938
2.20339
2.207314
2.212187
2.219114
2.228391
2.239893
2.253264
2.267996
2.283448
2.298872
2.313437
2.326286
2.33659
2.343609
2.346738
2.345539
2.339756
2.329305
2.314261
2.294829
2.271312
2.244082
2.213549
2.180134
2.144251
2.106291
2.066609
2.025515
1.983278
1.94012
1.896219
1.851717
1.80672
1.761308
1.715539
1.669455
1.623086
1.576456
1.529583
1.482476
1.435139
1.387562
1.339722
1.291565
1.243056
1.194083
1.144809
1.095672
1.051012
1.019604
1.006626
1.002222
1.001006
1.000198
1.000064
)
;
    }
    wall
    {
        type            calculated;
        value           nonuniform List<scalar> 2(2.237448 2.237446);
    }
    frontAndBack
    {
        type            empty;
    }
    middle
    {
        type            symmetryPlane;
        value           nonuniform List<scalar> 2(1.000064 1.000064);
    }
}


// ************************************************************************* //
