/*--------------------------------*- C++ -*----------------------------------*\
| =========                 |                                                 |
| \\      /  F ield         | foam-extend: Open Source CFD                    |
|  \\    /   O peration     | Version:     4.0                                |
|   \\  /    A nd           | Web:         http://www.foam-extend.org         |
|    \\/     M anipulation  |                                                 |
\*---------------------------------------------------------------------------*/
FoamFile
{
    version     2.0;
    format      ascii;
    class       volScalarField;
    location    "100";
    object      k;
}
// * * * * * * * * * * * * * * * * * * * * * * * * * * * * * * * * * * * * * //

dimensions      [0 2 -2 0 0 0 0];

internalField   nonuniform List<scalar> 
150
(
0.0005802817
0.0005802818
0.00641629
0.006416292
0.01744901
0.01744901
0.03421399
0.03421399
0.0572928
0.05729281
0.08731507
0.08731509
0.1249578
0.1249578
0.1709406
0.1709406
0.2260155
0.2260156
0.2909502
0.2909503
0.3665035
0.3665036
0.4533948
0.453395
0.5522686
0.5522687
0.6636578
0.663658
0.7879514
0.7879516
0.9253687
0.925369
1.075947
1.075947
1.239543
1.239543
1.415848
1.415848
1.604424
1.604425
1.804736
1.804737
2.015428
2.015428
2.232605
2.232606
2.45275
2.452751
2.67205
2.67205
2.886528
2.886528
3.092192
3.092192
3.28519
3.28519
3.461968
3.461969
3.619421
3.619422
3.755008
3.755009
3.866847
3.866848
3.953761
3.953761
4.015283
4.015284
4.051624
4.051624
4.0636
4.0636
4.052541
4.052541
4.020179
4.02018
3.968535
3.968536
3.899808
3.899808
3.816272
3.816272
3.720197
3.720197
3.613777
3.613777
3.499081
3.499081
3.378022
3.378022
3.252335
3.252335
3.123575
3.123575
2.993117
2.993117
2.862169
2.862169
2.731782
2.731782
2.602874
2.602874
2.476239
2.476239
2.352569
2.352569
2.232467
2.232467
2.116458
2.116458
2.004997
2.004997
1.898472
1.898472
1.797206
1.797206
1.70145
1.70145
1.611379
1.611379
1.527079
1.527079
1.44854
1.44854
1.37565
1.37565
1.308178
1.308178
1.245779
1.245779
1.187985
1.187985
1.134207
1.134207
1.083754
1.083754
1.035918
1.035918
0.9903235
0.9903235
0.9474843
0.9474843
0.9090026
0.9090026
0.8769721
0.8769721
0.8535544
0.8535544
0.8408096
0.8408095
)
;

boundaryField
{
    leftandright
    {
        type            cyclic;
        value           nonuniform List<scalar> 
150
(
0.0005802817
0.006416291
0.01744901
0.03421399
0.05729281
0.08731508
0.1249578
0.1709406
0.2260156
0.2909503
0.3665036
0.4533949
0.5522686
0.6636579
0.7879515
0.9253689
1.075947
1.239543
1.415848
1.604424
1.804737
2.015428
2.232606
2.45275
2.67205
2.886528
3.092192
3.28519
3.461969
3.619421
3.755008
3.866847
3.953761
4.015283
4.051624
4.0636
4.052541
4.020179
3.968535
3.899808
3.816272
3.720197
3.613777
3.499081
3.378022
3.252335
3.123575
2.993117
2.862169
2.731782
2.602874
2.476239
2.352569
2.232467
2.116458
2.004997
1.898472
1.797206
1.70145
1.611379
1.527079
1.44854
1.37565
1.308178
1.245779
1.187985
1.134207
1.083754
1.035918
0.9903235
0.9474843
0.9090026
0.8769721
0.8535544
0.8408095
0.0005802817
0.006416291
0.01744901
0.03421399
0.05729281
0.08731508
0.1249578
0.1709406
0.2260156
0.2909503
0.3665036
0.4533949
0.5522686
0.6636579
0.7879515
0.9253689
1.075947
1.239543
1.415848
1.604424
1.804737
2.015428
2.232606
2.45275
2.67205
2.886528
3.092192
3.28519
3.461969
3.619421
3.755008
3.866847
3.953761
4.015283
4.051624
4.0636
4.052541
4.020179
3.968535
3.899808
3.816272
3.720197
3.613777
3.499081
3.378022
3.252335
3.123575
2.993117
2.862169
2.731782
2.602874
2.476239
2.352569
2.232467
2.116458
2.004997
1.898472
1.797206
1.70145
1.611379
1.527079
1.44854
1.37565
1.308178
1.245779
1.187985
1.134207
1.083754
1.035918
0.9903235
0.9474843
0.9090026
0.8769721
0.8535544
0.8408095
)
;
    }
    wall
    {
        type            fixedValue;
        value           uniform 1e-10;
    }
    frontAndBack
    {
        type            empty;
    }
    middle
    {
        type            symmetryPlane;
        value           nonuniform List<scalar> 2(0.8408096 0.8408095);
    }
}


// ************************************************************************* //
