/*--------------------------------*- C++ -*----------------------------------*\
| =========                 |                                                 |
| \\      /  F ield         | foam-extend: Open Source CFD                    |
|  \\    /   O peration     | Version:     4.0                                |
|   \\  /    A nd           | Web:         http://www.foam-extend.org         |
|    \\/     M anipulation  |                                                 |
\*---------------------------------------------------------------------------*/
FoamFile
{
    version     2.0;
    format      ascii;
    class       volSymmTensorField;
    location    "100";
    object      N;
}
// * * * * * * * * * * * * * * * * * * * * * * * * * * * * * * * * * * * * * //

dimensions      [0 2 -2 0 0 0 0];

internalField   nonuniform List<symmTensor> 
150
(
(0.001144043 0 0 1.504672e-08 0 1.650515e-05)
(0.001144043 0 0 1.504673e-08 0 1.650517e-05)
(0.01264928 0 0 7.668786e-07 0 0.0001825388)
(0.01264928 0 0 7.668791e-07 0 0.000182539)
(0.03439641 0 0 5.010061e-06 0 0.0004965986)
(0.03439642 0 0 5.010064e-06 0 0.000496599)
(0.06743567 0 0 1.807106e-05 0 0.0009742286)
(0.06743569 0 0 1.807107e-05 0 0.0009742294)
(0.1125383 0 0 4.817212e-05 0 0.001999169)
(0.1125383 0 0 4.817215e-05 0 0.00199917)
(0.1708632 0 0 0.0001067192 0 0.00366026)
(0.1708632 0 0 0.0001067193 0 0.003660262)
(0.2436077 1.485497e-19 0 0.0002085326 0 0.00609935)
(0.2436077 -1.485498e-19 0 0.0002085328 0 0.006099353)
(0.3320139 0 0 0.0003720019 0 0.009495289)
(0.332014 0 0 0.0003720021 0 0.009495293)
(0.4373738 0 0 0.000619147 0 0.01403817)
(0.4373739 -6.125598e-19 0 0.0006191474 0 0.01403818)
(0.5609975 0 0 0.0009755692 0 0.01992741)
(0.5609976 0 0 0.0009755698 0 0.01992742)
(0.7041678 0 0 0.001470281 0 0.02736899)
(0.704168 0 0 0.001470282 0 0.027369)
(0.8680824 -2.707241e-18 0 0.002135417 0 0.03657183)
(0.8680826 2.707242e-18 0 0.002135419 0 0.03657185)
(1.053788 0 0 0.00300583 0 0.04774336)
(1.053788 0 0 0.003005833 0 0.04774338)
(1.262112 4.053459e-18 0 0.004118608 0 0.0610846)
(1.262113 -4.053461e-18 0 0.004118611 0 0.06108463)
(1.493605 0 0 0.005512531 0 0.07678514)
(1.493605 0 0 0.005512535 0 0.07678518)
(1.748492 -5.654063e-18 0 0.007227515 0 0.09501841)
(1.748492 0 0 0.007227521 0 0.09501846)
(2.026652 0 0 0.009304064 0 0.1159378)
(2.026653 0 0 0.009304071 0 0.1159378)
(2.327629 1.491016e-17 0 0.01178275 0 0.1396738)
(2.32763 0 0 0.01178276 0 0.1396738)
(2.65066 0 0 0.01470373 0 0.1663326)
(2.65066 0 0 0.01470374 0 0.1663327)
(2.994745 -3.754273e-17 0 0.01810631 0 0.1959967)
(2.994746 1.877137e-17 0 0.01810633 0 0.1959968)
(3.358721 0 0 0.02202823 0 0.2287239)
(3.358721 0 0 0.02202825 0 0.228724)
(3.739957 4.544792e-17 0 0.02648712 0 0.2644118)
(3.739958 0 0 0.02648714 0 0.264412)
(4.13101 4.928967e-17 0 0.03148726 0 0.302713)
(4.131011 0 0 0.03148729 0 0.3027132)
(4.525146 0 0 0.03703921 0 0.343315)
(4.525147 0 0 0.03703923 0 0.3433151)
(4.91513 -5.636555e-17 0 0.04314505 0 0.3858242)
(4.915131 0 0 0.04314507 0 0.3858244)
(5.293486 -5.946092e-17 0 0.04979717 0 0.4297722)
(5.293487 0 0 0.0497972 0 0.4297724)
(5.652781 -1.243563e-16 0 0.0569773 0 0.4746255)
(5.652782 0 0 0.05697734 0 0.4746257)
(5.985922 0 0 0.06465604 0 0.5198007)
(5.985923 0 0 0.06465607 0 0.5198009)
(6.286461 0 0 0.0727929 0 0.5646831)
(6.286462 0 0 0.07279294 0 0.5646832)
(6.548857 0 0 0.08133696 0 0.6086481)
(6.548858 0 0 0.08133701 0 0.6086483)
(6.768704 1.368079e-16 0 0.090228 0 0.6510845)
(6.768705 -1.368079e-16 0 0.09022804 0 0.6510847)
(6.942881 1.373867e-16 0 0.09939805 0 0.6914158)
(6.942881 0 0 0.09939809 0 0.6914159)
(7.069628 -4.108815e-16 0 0.1087734 0 0.7291207)
(7.069628 0 0 0.1087734 0 0.7291209)
(7.148541 0 0 0.1182764 0 0.7637493)
(7.148541 0 0 0.1182764 0 0.7637495)
(7.180486 2.666162e-16 0 0.1278281 0 0.7949345)
(7.180486 0 0 0.1278281 0 0.7949347)
(7.167452 0 0 0.1373497 0 0.8223987)
(7.167452 0 0 0.1373497 0 0.8223988)
(7.112363 5.058455e-16 0 0.1467648 0 0.845955)
(7.112363 -2.529228e-16 0 0.1467648 0 0.8459551)
(7.018853 0 0 0.1560008 0 0.8655046)
(7.018854 0 0 0.1560008 0 0.8655047)
(6.89105 0 0 0.1649903 0 0.8810302)
(6.89105 0 0 0.1649903 0 0.8810303)
(6.733357 0 0 0.1736721 0 0.8925865)
(6.733357 0 0 0.1736721 0 0.8925865)
(6.550262 0 0 0.1819917 0 0.9002897)
(6.550263 0 0 0.1819917 0 0.9002898)
(6.346185 0 0 0.1899023 0 0.9043064)
(6.346186 0 0 0.1899023 0 0.9043065)
(6.125347 0 0 0.1973644 0 0.9048421)
(6.125348 0 0 0.1973644 0 0.9048421)
(5.891685 -7.122419e-16 0 0.2043467 0 0.9021311)
(5.891685 0 0 0.2043467 0 0.9021311)
(5.64879 -3.328886e-16 0 0.2108256 0 0.8964276)
(5.64879 0 0 0.2108256 0 0.8964276)
(5.399886 0 0 0.2167854 0 0.8879981)
(5.399886 0 0 0.2167854 0 0.8879981)
(5.147815 0 0 0.2222184 0 0.8771154)
(5.147816 0 0 0.2222184 0 0.8771154)
(4.895055 0 0 0.2271247 0 0.8640539)
(4.895055 0 0 0.2271247 0 0.8640539)
(4.643738 4.913016e-16 0 0.2315122 0 0.8490865)
(4.643739 0 0 0.2315122 0 0.8490864)
(4.395686 4.519042e-16 0 0.2353964 0 0.8324823)
(4.395686 -4.519042e-16 0 0.2353964 0 0.8324823)
(4.152442 0 0 0.2388005 0 0.8145056)
(4.152442 0 0 0.2388004 0 0.8145055)
(3.915308 0 0 0.2417548 0 0.7954146)
(3.915309 0 0 0.2417547 0 0.7954145)
(3.68538 0 0 0.2442966 0 0.7754611)
(3.68538 0 0 0.2442965 0 0.775461)
(3.463574 0 0 0.2464695 0 0.7548901)
(3.463574 0 0 0.2464694 0 0.75489)
(3.250655 0 0 0.2483222 0 0.7339386)
(3.250655 0 0 0.2483221 0 0.7339384)
(3.047251 -5.195828e-16 0 0.2499076 0 0.7128341)
(3.047252 5.195828e-16 0 0.2499075 0 0.712834)
(2.853871 0 0 0.2512808 0 0.6917926)
(2.853871 0 0 0.2512806 0 0.6917925)
(2.6709 0 0 0.2524969 0 0.6710153)
(2.6709 0 0 0.2524967 0 0.6710152)
(2.498608 -3.837674e-16 0 0.2536086 0 0.6506847)
(2.498608 3.837674e-16 0 0.2536085 0 0.6506845)
(2.337135 0 0 0.2546633 0 0.6309592)
(2.337135 0 0 0.2546632 0 0.6309591)
(2.18649 0 0 0.2556993 0 0.6119683)
(2.18649 0 0 0.2556992 0 0.6119682)
(2.046533 0 0 0.2567422 0 0.5938062)
(2.046533 0 0 0.2567421 0 0.5938061)
(1.916973 -1.009419e-15 0 0.2578013 0 0.5765254)
(1.916973 0 0 0.2578012 0 0.5765252)
(1.79736 0 0 0.258865 0 0.5601309)
(1.797361 -4.538655e-16 0 0.2588648 0 0.5601308)
(1.687089 0 0 0.2598954 0 0.544574)
(1.687089 0 0 0.2598952 0 0.5445738)
(1.585402 0 0 0.2608228 0 0.5297457)
(1.585402 0 0 0.2608227 0 0.5297456)
(1.491406 0 0 0.2615373 0 0.5154708)
(1.491406 -6.588383e-16 0 0.2615371 0 0.5154707)
(1.404125 0 0 0.2618779 0 0.5015052)
(1.404125 0 0 0.2618777 0 0.5015051)
(1.322666 0 0 0.2616187 0 0.4875515)
(1.322666 0 0 0.2616185 0 0.4875514)
(1.246811 0 0 0.2604682 0 0.4733673)
(1.246812 0 0 0.260468 0 0.4733672)
(1.177924 0 0 0.2580882 0 0.4589567)
(1.177924 0 0 0.2580881 0 0.4589566)
(1.118417 0 0 0.2546051 0 0.4449836)
(1.118417 0 0 0.2546049 0 0.4449835)
(1.07025 0 0 0.2509256 0 0.4327686)
(1.07025 0 0 0.2509254 0 0.4327685)
(1.035689 0 0 0.2478596 0 0.4235603)
(1.035689 0 0 0.2478595 0 0.4235602)
(1.017088 -6.003512e-16 0 0.2460703 0 0.4184604)
(1.017089 0 0 0.2460701 0 0.4184602)
)
;

boundaryField
{
    leftandright
    {
        type            cyclic;
        value           nonuniform List<symmTensor> 
150
(
(0.001144043 0 0 1.504672e-08 0 1.650516e-05)
(0.01264928 0 0 7.668788e-07 0 0.0001825389)
(0.03439641 0 0 5.010062e-06 0 0.0004965988)
(0.06743568 0 0 1.807106e-05 0 0.000974229)
(0.1125383 0 0 4.817214e-05 0 0.00199917)
(0.1708632 0 0 0.0001067193 0 0.003660261)
(0.2436077 -8.168619e-35 0 0.0002085327 0 0.006099351)
(0.3320139 0 0 0.000372002 0 0.009495291)
(0.4373738 -3.062798e-19 0 0.0006191472 0 0.01403817)
(0.5609976 0 0 0.0009755695 0 0.01992741)
(0.7041679 0 0 0.001470282 0 0.027369)
(0.8680825 -2.122308e-34 0 0.002135418 0 0.03657184)
(1.053788 0 0 0.003005832 0 0.04774337)
(1.262113 1.05324e-33 0 0.00411861 0 0.06108461)
(1.493605 0 0 0.005512533 0 0.07678516)
(1.748492 -2.827032e-18 0 0.007227518 0 0.09501843)
(2.026653 0 0 0.009304068 0 0.1159378)
(2.327629 7.455083e-18 0 0.01178275 0 0.1396738)
(2.65066 0 0 0.01470373 0 0.1663327)
(2.994746 -9.385685e-18 0 0.01810632 0 0.1959968)
(3.358721 0 0 0.02202824 0 0.2287239)
(3.739957 2.272396e-17 0 0.02648713 0 0.2644119)
(4.131011 2.464484e-17 0 0.03148728 0 0.3027131)
(4.525146 0 0 0.03703922 0 0.343315)
(4.915131 -2.818278e-17 0 0.04314506 0 0.3858243)
(5.293487 -2.973047e-17 0 0.04979718 0 0.4297723)
(5.652781 -6.217815e-17 0 0.05697732 0 0.4746256)
(5.985923 0 0 0.06465606 0 0.5198008)
(6.286461 0 0 0.07279292 0 0.5646831)
(6.548857 0 0 0.08133698 0 0.6086482)
(6.768704 0 0 0.09022802 0 0.6510846)
(6.942881 6.869333e-17 0 0.09939807 0 0.6914158)
(7.069628 -2.054408e-16 0 0.1087734 0 0.7291208)
(7.148541 0 0 0.1182764 0 0.7637494)
(7.180486 1.333081e-16 0 0.1278281 0 0.7949346)
(7.167452 0 0 0.1373497 0 0.8223987)
(7.112363 1.264614e-16 0 0.1467648 0 0.845955)
(7.018854 0 0 0.1560008 0 0.8655047)
(6.89105 0 0 0.1649903 0 0.8810302)
(6.733357 0 0 0.1736721 0 0.8925865)
(6.550262 0 0 0.1819917 0 0.9002898)
(6.346186 0 0 0.1899023 0 0.9043064)
(6.125348 0 0 0.1973644 0 0.9048421)
(5.891685 -3.56121e-16 0 0.2043467 0 0.9021311)
(5.64879 -1.664443e-16 0 0.2108256 0 0.8964276)
(5.399886 0 0 0.2167854 0 0.8879981)
(5.147815 0 0 0.2222184 0 0.8771154)
(4.895055 0 0 0.2271247 0 0.8640539)
(4.643738 2.456508e-16 0 0.2315122 0 0.8490865)
(4.395686 5.004563e-31 0 0.2353964 0 0.8324823)
(4.152442 0 0 0.2388005 0 0.8145056)
(3.915308 0 0 0.2417548 0 0.7954145)
(3.68538 0 0 0.2442966 0 0.775461)
(3.463574 0 0 0.2464695 0 0.75489)
(3.250655 0 0 0.2483222 0 0.7339385)
(3.047251 -4.564807e-32 0 0.2499076 0 0.712834)
(2.853871 0 0 0.2512807 0 0.6917926)
(2.6709 0 0 0.2524968 0 0.6710153)
(2.498608 -7.830943e-32 0 0.2536086 0 0.6506846)
(2.337135 0 0 0.2546633 0 0.6309591)
(2.18649 0 0 0.2556992 0 0.6119683)
(2.046533 0 0 0.2567422 0 0.5938061)
(1.916973 -5.047094e-16 0 0.2578013 0 0.5765253)
(1.797361 -2.269328e-16 0 0.2588649 0 0.5601309)
(1.687089 0 0 0.2598953 0 0.5445739)
(1.585402 0 0 0.2608228 0 0.5297457)
(1.491406 -3.294192e-16 0 0.2615372 0 0.5154708)
(1.404125 0 0 0.2618778 0 0.5015051)
(1.322666 0 0 0.2616186 0 0.4875515)
(1.246812 0 0 0.2604681 0 0.4733673)
(1.177924 0 0 0.2580882 0 0.4589567)
(1.118417 0 0 0.254605 0 0.4449835)
(1.07025 0 0 0.2509255 0 0.4327686)
(1.035689 0 0 0.2478595 0 0.4235602)
(1.017089 -3.001756e-16 0 0.2460702 0 0.4184603)
(0.001144043 0 0 1.504672e-08 0 1.650516e-05)
(0.01264928 0 0 7.668788e-07 0 0.0001825389)
(0.03439641 0 0 5.010062e-06 0 0.0004965988)
(0.06743568 0 0 1.807106e-05 0 0.000974229)
(0.1125383 0 0 4.817214e-05 0 0.00199917)
(0.1708632 0 0 0.0001067193 0 0.003660261)
(0.2436077 -9.076243e-35 0 0.0002085327 0 0.006099351)
(0.3320139 0 0 0.000372002 0 0.009495291)
(0.4373738 -3.062798e-19 0 0.0006191472 0 0.01403817)
(0.5609976 0 0 0.0009755695 0 0.01992741)
(0.7041679 0 0 0.001470282 0 0.027369)
(0.8680825 -2.122308e-34 0 0.002135418 0 0.03657184)
(1.053788 0 0 0.003005832 0 0.04774337)
(1.262113 1.05324e-33 0 0.00411861 0 0.06108461)
(1.493605 0 0 0.005512533 0 0.07678516)
(1.748492 -2.827032e-18 0 0.007227518 0 0.09501843)
(2.026653 0 0 0.009304068 0 0.1159378)
(2.327629 7.455083e-18 0 0.01178275 0 0.1396738)
(2.65066 0 0 0.01470373 0 0.1663327)
(2.994746 -9.385685e-18 0 0.01810632 0 0.1959968)
(3.358721 0 0 0.02202824 0 0.2287239)
(3.739957 2.272396e-17 0 0.02648713 0 0.2644119)
(4.131011 2.464484e-17 0 0.03148728 0 0.3027131)
(4.525146 0 0 0.03703922 0 0.343315)
(4.915131 -2.818278e-17 0 0.04314506 0 0.3858243)
(5.293487 -2.973047e-17 0 0.04979718 0 0.4297723)
(5.652781 -6.217815e-17 0 0.05697732 0 0.4746256)
(5.985923 0 0 0.06465606 0 0.5198008)
(6.286461 0 0 0.07279292 0 0.5646831)
(6.548857 0 0 0.08133698 0 0.6086482)
(6.768704 0 0 0.09022802 0 0.6510846)
(6.942881 6.869333e-17 0 0.09939807 0 0.6914158)
(7.069628 -2.054408e-16 0 0.1087734 0 0.7291208)
(7.148541 0 0 0.1182764 0 0.7637494)
(7.180486 1.333081e-16 0 0.1278281 0 0.7949346)
(7.167452 0 0 0.1373497 0 0.8223987)
(7.112363 1.264614e-16 0 0.1467648 0 0.845955)
(7.018854 0 0 0.1560008 0 0.8655047)
(6.89105 0 0 0.1649903 0 0.8810302)
(6.733357 0 0 0.1736721 0 0.8925865)
(6.550262 0 0 0.1819917 0 0.9002898)
(6.346186 0 0 0.1899023 0 0.9043064)
(6.125348 0 0 0.1973644 0 0.9048421)
(5.891685 -3.56121e-16 0 0.2043467 0 0.9021311)
(5.64879 -1.664443e-16 0 0.2108256 0 0.8964276)
(5.399886 0 0 0.2167854 0 0.8879981)
(5.147815 0 0 0.2222184 0 0.8771154)
(4.895055 0 0 0.2271247 0 0.8640539)
(4.643738 2.456508e-16 0 0.2315122 0 0.8490865)
(4.395686 5.004563e-31 0 0.2353964 0 0.8324823)
(4.152442 0 0 0.2388005 0 0.8145056)
(3.915308 0 0 0.2417548 0 0.7954145)
(3.68538 0 0 0.2442966 0 0.775461)
(3.463574 0 0 0.2464695 0 0.75489)
(3.250655 0 0 0.2483222 0 0.7339385)
(3.047251 -4.564807e-32 0 0.2499076 0 0.712834)
(2.853871 0 0 0.2512807 0 0.6917926)
(2.6709 0 0 0.2524968 0 0.6710153)
(2.498608 -7.830943e-32 0 0.2536086 0 0.6506846)
(2.337135 0 0 0.2546633 0 0.6309591)
(2.18649 0 0 0.2556992 0 0.6119683)
(2.046533 0 0 0.2567422 0 0.5938061)
(1.916973 -5.047094e-16 0 0.2578013 0 0.5765253)
(1.797361 -2.269328e-16 0 0.2588649 0 0.5601309)
(1.687089 0 0 0.2598953 0 0.5445739)
(1.585402 0 0 0.2608228 0 0.5297457)
(1.491406 -3.294192e-16 0 0.2615372 0 0.5154708)
(1.404125 0 0 0.2618778 0 0.5015051)
(1.322666 0 0 0.2616186 0 0.4875515)
(1.246812 0 0 0.2604681 0 0.4733673)
(1.177924 0 0 0.2580882 0 0.4589567)
(1.118417 0 0 0.254605 0 0.4449835)
(1.07025 0 0 0.2509255 0 0.4327686)
(1.035689 0 0 0.2478595 0 0.4235602)
(1.017089 -3.001756e-16 0 0.2460702 0 0.4184603)
)
;
    }
    wall
    {
        type            calculated;
        value           uniform (3.333333e-11 0 0 1e-10 0 6.666667e-11);
    }
    frontAndBack
    {
        type            empty;
    }
    middle
    {
        type            symmetryPlane;
        value           nonuniform List<symmTensor> 2((1.017088 0 0 0.4184604 0 0.4184604) (1.017089 0 0 0.4184602 0 0.4184602));
    }
}


// ************************************************************************* //
