/*--------------------------------*- C++ -*----------------------------------*\
| =========                 |                                                 |
| \\      /  F ield         | foam-extend: Open Source CFD                    |
|  \\    /   O peration     | Version:     4.0                                |
|   \\  /    A nd           | Web:         http://www.foam-extend.org         |
|    \\/     M anipulation  |                                                 |
\*---------------------------------------------------------------------------*/
FoamFile
{
    version     2.0;
    format      ascii;
    class       volSymmTensorField;
    location    "100";
    object      NLT;
}
// * * * * * * * * * * * * * * * * * * * * * * * * * * * * * * * * * * * * * //

dimensions      [0 0 -1 0 0 0 0];

internalField   nonuniform List<symmTensor> 
150
(
(3.925194e-05 0 0 6.615725e-10 0 0)
(3.925191e-05 0 0 6.615723e-10 0 0)
(0.002044952 0 0 1.588689e-07 0 0)
(0.00204495 0 0 1.588689e-07 0 0)
(0.01364841 0 0 2.547227e-06 0 0)
(0.0136484 0 0 2.547226e-06 0 0)
(0.05024807 0 0 1.725093e-05 0 0)
(0.05024803 0 0 1.725093e-05 0 0)
(0.1365445 0 0 7.462485e-05 0 0)
(0.1365445 0 0 7.462484e-05 0 0)
(0.3078257 0 0 0.0002445523 0 0)
(0.3078256 0 0 0.0002445523 0 0)
(0.6106907 -1.670481e-20 0 0.0006624381 0 0)
(0.6106905 1.670482e-20 0 0.0006624383 0 0)
(1.10284 0 0 0.001560004 0 0)
(1.10284 0 0 0.001560005 0 0)
(1.851553 0 0 0.003296894 0 0)
(1.851553 1.504987e-19 0 0.003296896 0 0)
(2.930613 0 0 0.006387211 0 0)
(2.930614 0 0 0.006387215 0 0)
(4.415743 0 0 0.01151435 0 0)
(4.415744 0 0 0.01151436 0 0)
(6.379104 1.535282e-18 0 0.01952896 0 0)
(6.379107 -1.535284e-18 0 0.01952898 0 0)
(8.883926 0 0 0.03142914 0 0)
(8.88393 0 0 0.03142916 0 0)
(11.98059 -3.438808e-18 0 0.04832788 0 0)
(11.98059 3.438811e-18 0 0.04832793 0 0)
(15.70538 0 0 0.07141895 0 0)
(15.70539 0 0 0.07141903 0 0)
(20.08257 6.566261e-18 0 0.1019546 0 0)
(20.08259 0 0 0.1019547 0 0)
(25.12968 0 0 0.1412479 0 0)
(25.1297 0 0 0.1412481 0 0)
(30.86536 -2.223372e-17 0 0.1907084 0 0)
(30.86538 0 0 0.1907086 0 0)
(37.31923 0 0 0.2519167 0 0)
(37.31926 0 0 0.251917 0 0)
(44.54003 6.895219e-17 0 0.3267192 0 0)
(44.54006 -3.447614e-17 0 0.3267196 0 0)
(52.59638 0 0 0.4172873 0 0)
(52.59643 0 0 0.4172878 0 0)
(65.93447 -1.07589e-16 0 0.5632398 0 0)
(65.93452 0 0 0.5632406 0 0)
(81.23753 -1.353375e-16 0 0.7447201 0 0)
(81.2376 0 0 0.744721 0 0)
(98.85014 0 0 0.9702844 0 0)
(98.85022 0 0 0.9702855 0 0)
(119.0432 2.055087e-16 0 1.249408 0 0)
(119.0433 0 0 1.249409 0 0)
(142.0997 2.493515e-16 0 1.593438 0 0)
(142.0998 0 0 1.59344 0 0)
(168.3036 6.002045e-16 0 2.015775 0 0)
(168.3036 0 0 2.015777 0 0)
(197.9203 0 0 2.531934 0 0)
(197.9203 0 0 2.531935 0 0)
(231.1714 0 0 3.159464 0 0)
(231.1714 0 0 3.159466 0 0)
(268.2064 0 0 3.917701 0 0)
(268.2064 0 0 3.917703 0 0)
(309.0765 -1.177522e-15 0 4.827361 0 0)
(309.0765 1.177523e-15 0 4.827363 0 0)
(353.7135 -1.3715e-15 0 5.909978 0 0)
(353.7135 0 0 5.909979 0 0)
(401.9173 4.760404e-15 0 7.187241 0 0)
(401.9173 0 0 7.187243 0 0)
(453.3534 0 0 8.680248 0 0)
(453.3533 0 0 8.68025 0 0)
(507.5602 -4.159963e-15 0 10.40874 0 0)
(507.5601 0 0 10.40874 0 0)
(563.9653 0 0 12.39032 0 0)
(563.9652 0 0 12.39032 0 0)
(621.9077 -1.059147e-14 0 14.63975 0 0)
(621.9076 5.295735e-15 0 14.63975 0 0)
(680.6643 0 0 17.16832 0 0)
(680.664 0 0 17.16831 0 0)
(739.4758 0 0 19.98322 0 0)
(739.4755 0 0 19.98322 0 0)
(797.5737 0 0 23.08719 0 0)
(797.5733 0 0 23.08718 0 0)
(854.2028 0 0 26.47809 0 0)
(854.2025 0 0 26.47809 0 0)
(908.6412 0 0 30.1488 0 0)
(908.641 0 0 30.14879 0 0)
(960.2152 0 0 34.08705 0 0)
(960.2151 0 0 34.08705 0 0)
(1008.31 3.906855e-14 0 38.27551 0 0)
(1008.31 0 0 38.27551 0 0)
(1052.375 2.072869e-14 0 42.69185 0 0)
(1052.375 0 0 42.69184 0 0)
(1091.929 0 0 47.30886 0 0)
(1091.928 0 0 47.30883 0 0)
(1126.552 0 0 52.09459 0 0)
(1126.551 0 0 52.09457 0 0)
(1155.889 0 0 57.01254 0 0)
(1155.889 0 0 57.01252 0 0)
(1179.641 -4.934019e-14 0 62.02143 0 0)
(1179.64 0 0 62.02139 0 0)
(1197.55 -5.07657e-14 0 67.07502 0 0)
(1197.55 5.076566e-14 0 67.07497 0 0)
(1209.399 0 0 72.12157 0 0)
(1209.399 0 0 72.12152 0 0)
(1214.996 0 0 77.1029 0 0)
(1214.995 0 0 77.10283 0 0)
(1214.161 0 0 81.953 0 0)
(1214.161 0 0 81.95292 0 0)
(1206.721 0 0 86.59611 0 0)
(1206.72 0 0 86.59602 0 0)
(1192.492 0 0 90.94413 0 0)
(1192.491 0 0 90.94404 0 0)
(1171.274 1.065075e-13 0 94.89375 0 0)
(1171.273 -1.065074e-13 0 94.89365 0 0)
(1142.84 0 0 98.3227 0 0)
(1142.84 0 0 98.32266 0 0)
(1106.931 0 0 101.0862 0 0)
(1106.931 0 0 101.0862 0 0)
(1063.255 9.956117e-14 0 103.0138 0 0)
(1063.254 -9.956106e-14 0 103.0137 0 0)
(1011.481 0 0 103.9058 0 0)
(1011.482 0 0 103.9058 0 0)
(951.2596 0 0 103.5334 0 0)
(951.2605 0 0 103.5335 0 0)
(882.2154 0 0 101.6377 0 0)
(882.2156 0 0 101.6376 0 0)
(803.9911 3.101691e-13 0 97.9359 0 0)
(803.9914 0 0 97.93589 0 0)
(716.2067 0 0 92.12088 0 0)
(716.2079 1.387828e-13 0 92.12099 0 0)
(618.6345 0 0 83.88898 0 0)
(618.6358 0 0 83.88911 0 0)
(510.8982 0 0 72.9092 0 0)
(510.8994 0 0 72.90933 0 0)
(393.4443 0 0 58.97093 0 0)
(393.4451 1.530021e-13 0 58.97101 0 0)
(267.2011 0 0 41.96814 0 0)
(267.2014 0 0 41.96816 0 0)
(145.0394 0 0 23.80909 0 0)
(145.0393 0 0 23.80906 0 0)
(55.61341 0 0 9.507591 0 0)
(55.61331 0 0 9.507568 0 0)
(18.97569 0 0 3.359752 0 0)
(18.9757 0 0 3.359751 0 0)
(6.467124 0 0 1.177407 0 0)
(6.467116 0 0 1.177405 0 0)
(3.067517 0 0 0.570505 0 0)
(3.067508 0 0 0.5705031 0 0)
(0.5650694 0 0 0.1066571 0 0)
(0.56507 0 0 0.1066571 0 0)
(0.1908765 1.264505e-16 0 0.0363101 0 0)
(0.1908754 0 0 0.03630986 0 0)
)
;

boundaryField
{
    leftandright
    {
        type            cyclic;
        value           nonuniform List<symmTensor> 
150
(
(3.925193e-05 0 0 6.615724e-10 0 0)
(0.002044951 0 0 1.588689e-07 0 0)
(0.01364841 0 0 2.547227e-06 0 0)
(0.05024805 0 0 1.725093e-05 0 0)
(0.1365445 0 0 7.462484e-05 0 0)
(0.3078257 0 0 0.0002445523 0 0)
(0.6106906 9.185829e-36 0 0.0006624382 0 0)
(1.10284 0 0 0.001560004 0 0)
(1.851553 7.524931e-20 0 0.003296895 0 0)
(2.930614 0 0 0.006387213 0 0)
(4.415743 0 0 0.01151435 0 0)
(6.379106 1.203566e-34 0 0.01952897 0 0)
(8.883928 0 0 0.03142915 0 0)
(11.98059 -8.935311e-34 0 0.0483279 0 0)
(15.70539 0 0 0.07141899 0 0)
(20.08258 3.283132e-18 0 0.1019547 0 0)
(25.12969 0 0 0.141248 0 0)
(30.86537 -1.111687e-17 0 0.1907085 0 0)
(37.31924 0 0 0.2519168 0 0)
(44.54005 1.723806e-17 0 0.3267194 0 0)
(52.5964 0 0 0.4172875 0 0)
(65.93449 -5.379452e-17 0 0.5632402 0 0)
(81.23756 -6.766878e-17 0 0.7447205 0 0)
(98.85018 0 0 0.9702849 0 0)
(119.0432 1.027544e-16 0 1.249409 0 0)
(142.0997 1.246758e-16 0 1.593439 0 0)
(168.3036 3.001024e-16 0 2.015776 0 0)
(197.9203 0 0 2.531935 0 0)
(231.1714 0 0 3.159465 0 0)
(268.2064 0 0 3.917702 0 0)
(309.0765 0 0 4.827362 0 0)
(353.7135 -6.857499e-16 0 5.909979 0 0)
(401.9173 2.380202e-15 0 7.187242 0 0)
(453.3534 0 0 8.680249 0 0)
(507.5601 -2.079981e-15 0 10.40874 0 0)
(563.9652 0 0 12.39032 0 0)
(621.9077 -2.647867e-15 0 14.63975 0 0)
(680.6642 0 0 17.16831 0 0)
(739.4757 0 0 19.98322 0 0)
(797.5735 0 0 23.08718 0 0)
(854.2027 0 0 26.47809 0 0)
(908.6411 0 0 30.1488 0 0)
(960.2151 0 0 34.08705 0 0)
(1008.31 1.953428e-14 0 38.27551 0 0)
(1052.375 1.036434e-14 0 42.69184 0 0)
(1091.928 0 0 47.30884 0 0)
(1126.551 0 0 52.09458 0 0)
(1155.889 0 0 57.01253 0 0)
(1179.64 -2.467009e-14 0 62.02141 0 0)
(1197.55 -5.62199e-29 0 67.075 0 0)
(1209.399 0 0 72.12154 0 0)
(1214.995 0 0 77.10286 0 0)
(1214.161 0 0 81.95296 0 0)
(1206.72 0 0 86.59606 0 0)
(1192.491 0 0 90.94408 0 0)
(1171.273 9.357241e-30 0 94.8937 0 0)
(1142.84 0 0 98.32268 0 0)
(1106.931 0 0 101.0862 0 0)
(1063.255 2.031589e-29 0 103.0138 0 0)
(1011.481 0 0 103.9058 0 0)
(951.2601 0 0 103.5334 0 0)
(882.2155 0 0 101.6376 0 0)
(803.9912 1.550845e-13 0 97.9359 0 0)
(716.2073 6.939137e-14 0 92.12094 0 0)
(618.6351 0 0 83.88905 0 0)
(510.8988 0 0 72.90927 0 0)
(393.4447 7.650099e-14 0 58.97097 0 0)
(267.2013 0 0 41.96815 0 0)
(145.0394 0 0 23.80908 0 0)
(55.61336 0 0 9.507579 0 0)
(18.9757 0 0 3.359751 0 0)
(6.46712 0 0 1.177406 0 0)
(3.067512 0 0 0.570504 0 0)
(0.5650697 0 0 0.1066571 0 0)
(0.190876 6.322503e-17 0 0.03630998 0 0)
(3.925193e-05 0 0 6.615724e-10 0 0)
(0.002044951 0 0 1.588689e-07 0 0)
(0.01364841 0 0 2.547227e-06 0 0)
(0.05024805 0 0 1.725093e-05 0 0)
(0.1365445 0 0 7.462484e-05 0 0)
(0.3078257 0 0 0.0002445523 0 0)
(0.6106906 1.020648e-35 0 0.0006624382 0 0)
(1.10284 0 0 0.001560004 0 0)
(1.851553 7.524931e-20 0 0.003296895 0 0)
(2.930614 0 0 0.006387213 0 0)
(4.415743 0 0 0.01151435 0 0)
(6.379106 1.203566e-34 0 0.01952897 0 0)
(8.883928 0 0 0.03142915 0 0)
(11.98059 -8.935311e-34 0 0.0483279 0 0)
(15.70539 0 0 0.07141899 0 0)
(20.08258 3.283132e-18 0 0.1019547 0 0)
(25.12969 0 0 0.141248 0 0)
(30.86537 -1.111687e-17 0 0.1907085 0 0)
(37.31924 0 0 0.2519168 0 0)
(44.54005 1.723806e-17 0 0.3267194 0 0)
(52.5964 0 0 0.4172875 0 0)
(65.93449 -5.379452e-17 0 0.5632402 0 0)
(81.23756 -6.766878e-17 0 0.7447205 0 0)
(98.85018 0 0 0.9702849 0 0)
(119.0432 1.027544e-16 0 1.249409 0 0)
(142.0997 1.246758e-16 0 1.593439 0 0)
(168.3036 3.001024e-16 0 2.015776 0 0)
(197.9203 0 0 2.531935 0 0)
(231.1714 0 0 3.159465 0 0)
(268.2064 0 0 3.917702 0 0)
(309.0765 0 0 4.827362 0 0)
(353.7135 -6.857499e-16 0 5.909979 0 0)
(401.9173 2.380202e-15 0 7.187242 0 0)
(453.3534 0 0 8.680249 0 0)
(507.5601 -2.079981e-15 0 10.40874 0 0)
(563.9652 0 0 12.39032 0 0)
(621.9077 -2.647867e-15 0 14.63975 0 0)
(680.6642 0 0 17.16831 0 0)
(739.4757 0 0 19.98322 0 0)
(797.5735 0 0 23.08718 0 0)
(854.2027 0 0 26.47809 0 0)
(908.6411 0 0 30.1488 0 0)
(960.2151 0 0 34.08705 0 0)
(1008.31 1.953428e-14 0 38.27551 0 0)
(1052.375 1.036434e-14 0 42.69184 0 0)
(1091.928 0 0 47.30884 0 0)
(1126.551 0 0 52.09458 0 0)
(1155.889 0 0 57.01253 0 0)
(1179.64 -2.467009e-14 0 62.02141 0 0)
(1197.55 -5.62199e-29 0 67.075 0 0)
(1209.399 0 0 72.12154 0 0)
(1214.995 0 0 77.10286 0 0)
(1214.161 0 0 81.95296 0 0)
(1206.72 0 0 86.59606 0 0)
(1192.491 0 0 90.94408 0 0)
(1171.273 9.357241e-30 0 94.8937 0 0)
(1142.84 0 0 98.32268 0 0)
(1106.931 0 0 101.0862 0 0)
(1063.255 2.031589e-29 0 103.0138 0 0)
(1011.481 0 0 103.9058 0 0)
(951.2601 0 0 103.5334 0 0)
(882.2155 0 0 101.6376 0 0)
(803.9912 1.550845e-13 0 97.9359 0 0)
(716.2073 6.939137e-14 0 92.12094 0 0)
(618.6351 0 0 83.88905 0 0)
(510.8988 0 0 72.90927 0 0)
(393.4447 7.650099e-14 0 58.97097 0 0)
(267.2013 0 0 41.96815 0 0)
(145.0394 0 0 23.80908 0 0)
(55.61336 0 0 9.507579 0 0)
(18.9757 0 0 3.359751 0 0)
(6.46712 0 0 1.177406 0 0)
(3.067512 0 0 0.570504 0 0)
(0.5650697 0 0 0.1066571 0 0)
(0.190876 6.322503e-17 0 0.03630998 0 0)
)
;
    }
    wall
    {
        type            calculated;
        value           nonuniform List<symmTensor> 2((2.578622e-07 0 0 1.676104e-07 0 0) (2.578618e-07 0 0 1.676102e-07 0 0));
    }
    frontAndBack
    {
        type            empty;
    }
    middle
    {
        type            symmetryPlane;
        value           nonuniform List<symmTensor> 2((0.1908765 0 0 0.0363101 0 0) (0.1908754 0 0 0.03630986 0 0));
    }
}


// ************************************************************************* //
