/*--------------------------------*- C++ -*----------------------------------*\
| =========                 |                                                 |
| \\      /  F ield         | foam-extend: Open Source CFD                    |
|  \\    /   O peration     | Version:     4.0                                |
|   \\  /    A nd           | Web:         http://www.foam-extend.org         |
|    \\/     M anipulation  |                                                 |
\*---------------------------------------------------------------------------*/
FoamFile
{
    version     2.0;
    format      ascii;
    class       volSymmTensorField;
    location    "100";
    object      NLTPlus;
}
// * * * * * * * * * * * * * * * * * * * * * * * * * * * * * * * * * * * * * //

dimensions      [0 2 -2 0 0 0 0];

internalField   nonuniform List<symmTensor> 
150
(
(2.180663e-07 0 0 3.675403e-12 0 0)
(2.180662e-07 0 0 3.675402e-12 0 0)
(1.136084e-05 0 0 8.826052e-10 0 0)
(1.136083e-05 0 0 8.826049e-10 0 0)
(7.582451e-05 0 0 1.415126e-08 0 0)
(7.582445e-05 0 0 1.415126e-08 0 0)
(0.0002791559 0 0 9.583852e-08 0 0)
(0.0002791557 0 0 9.583849e-08 0 0)
(0.0007585808 0 0 4.145825e-07 0 0)
(0.0007585804 0 0 4.145824e-07 0 0)
(0.001710143 0 0 1.358624e-06 0 0)
(0.001710142 0 0 1.358624e-06 0 0)
(0.003392726 -9.280453e-23 0 3.680212e-06 0 0)
(0.003392725 9.280455e-23 0 3.680213e-06 0 0)
(0.006126887 0 0 8.666689e-06 0 0)
(0.006126887 0 0 8.666692e-06 0 0)
(0.01028641 0 0 1.831608e-05 0 0)
(0.01028641 8.361037e-22 0 1.831609e-05 0 0)
(0.01628119 0 0 3.54845e-05 0 0)
(0.01628119 0 0 3.548453e-05 0 0)
(0.0245319 0 0 6.39686e-05 0 0)
(0.02453191 0 0 6.396865e-05 0 0)
(0.03543947 8.529346e-21 0 0.0001084942 0 0)
(0.03543948 -8.529353e-21 0 0.0001084943 0 0)
(0.04935514 0 0 0.0001746063 0 0)
(0.04935517 0 0 0.0001746065 0 0)
(0.06655882 -1.910449e-20 0 0.0002684882 0 0)
(0.06655885 1.91045e-20 0 0.0002684885 0 0)
(0.08725211 0 0 0.000396772 0 0)
(0.08725217 0 0 0.0003967724 0 0)
(0.1115698 3.647923e-20 0 0.0005664146 0 0)
(0.1115699 0 0 0.0005664152 0 0)
(0.1396093 0 0 0.0007847107 0 0)
(0.1396094 0 0 0.0007847116 0 0)
(0.1714742 -1.235207e-19 0 0.001059491 0 0)
(0.1714743 0 0 0.001059492 0 0)
(0.2073291 0 0 0.001399537 0 0)
(0.2073292 0 0 0.001399539 0 0)
(0.2474446 3.830677e-19 0 0.001815107 0 0)
(0.2474448 -1.915341e-19 0 0.001815109 0 0)
(0.2922021 0 0 0.002318263 0 0)
(0.2922024 0 0 0.002318266 0 0)
(0.3663026 -5.977166e-19 0 0.00312911 0 0)
(0.3663029 0 0 0.003129114 0 0)
(0.4513196 -7.518748e-19 0 0.004137334 0 0)
(0.45132 0 0 0.004137339 0 0)
(0.5491675 0 0 0.005390469 0 0)
(0.5491679 0 0 0.005390475 0 0)
(0.661351 1.141715e-18 0 0.006941155 0 0)
(0.6613514 0 0 0.006941163 0 0)
(0.7894426 1.385286e-18 0 0.008852436 0 0)
(0.7894431 0 0 0.008852445 0 0)
(0.9350198 3.33447e-18 0 0.01119875 0 0)
(0.9350201 0 0 0.01119876 0 0)
(1.099557 0 0 0.0140663 0 0)
(1.099557 0 0 0.01406631 0 0)
(1.284286 0 0 0.01755258 0 0)
(1.284286 0 0 0.01755259 0 0)
(1.490035 0 0 0.02176501 0 0)
(1.490036 0 0 0.02176502 0 0)
(1.717092 -6.541789e-18 0 0.02681867 0 0)
(1.717092 6.541792e-18 0 0.02681868 0 0)
(1.965075 -7.619443e-18 0 0.03283321 0 0)
(1.965075 0 0 0.03283322 0 0)
(2.232874 2.644669e-17 0 0.03992912 0 0)
(2.232874 0 0 0.03992913 0 0)
(2.51863 0 0 0.0482236 0 0)
(2.51863 0 0 0.04822361 0 0)
(2.819779 -2.31109e-17 0 0.05782631 0 0)
(2.819778 0 0 0.05782631 0 0)
(3.13314 0 0 0.06883509 0 0)
(3.13314 0 0 0.06883509 0 0)
(3.455043 -5.88415e-17 0 0.08133195 0 0)
(3.455042 2.942075e-17 0 0.08133195 0 0)
(3.781468 0 0 0.09537953 0 0)
(3.781467 0 0 0.09537951 0 0)
(4.108199 0 0 0.1110179 0 0)
(4.108197 0 0 0.1110179 0 0)
(4.430965 0 0 0.1282621 0 0)
(4.430963 0 0 0.1282621 0 0)
(4.745571 0 0 0.1471005 0 0)
(4.74557 0 0 0.1471005 0 0)
(5.048007 0 0 0.1674933 0 0)
(5.048006 0 0 0.1674933 0 0)
(5.334529 0 0 0.1893725 0 0)
(5.334528 0 0 0.1893725 0 0)
(5.601722 2.170475e-16 0 0.2126417 0 0)
(5.601721 0 0 0.2126417 0 0)
(5.84653 1.151594e-16 0 0.2371769 0 0)
(5.846529 0 0 0.2371769 0 0)
(6.06627 0 0 0.262827 0 0)
(6.066268 0 0 0.2628269 0 0)
(6.25862 0 0 0.2894144 0 0)
(6.258618 0 0 0.2894143 0 0)
(6.421608 0 0 0.3167364 0 0)
(6.421606 0 0 0.3167362 0 0)
(6.553559 -2.741122e-16 0 0.3445635 0 0)
(6.553556 0 0 0.3445633 0 0)
(6.653056 -2.820317e-16 0 0.372639 0 0)
(6.653053 2.820315e-16 0 0.3726387 0 0)
(6.718886 0 0 0.4006754 0 0)
(6.718883 0 0 0.4006751 0 0)
(6.749976 0 0 0.4283494 0 0)
(6.749973 0 0 0.428349 0 0)
(6.74534 0 0 0.4552945 0 0)
(6.745336 0 0 0.455294 0 0)
(6.704005 0 0 0.4810895 0 0)
(6.704 0 0 0.481089 0 0)
(6.624953 0 0 0.5052452 0 0)
(6.624949 0 0 0.5052447 0 0)
(6.507076 5.917086e-16 0 0.5271875 0 0)
(6.507072 -5.91708e-16 0 0.5271869 0 0)
(6.349111 0 0 0.5462372 0 0)
(6.349111 0 0 0.546237 0 0)
(6.149618 0 0 0.5615903 0 0)
(6.149618 0 0 0.56159 0 0)
(5.906973 5.531176e-16 0 0.5722991 0 0)
(5.906969 -5.53117e-16 0 0.5722985 0 0)
(5.619338 0 0 0.5772545 0 0)
(5.619343 0 0 0.5772547 0 0)
(5.284776 0 0 0.5751856 0 0)
(5.284781 0 0 0.5751859 0 0)
(4.901196 0 0 0.5646536 0 0)
(4.901198 0 0 0.5646535 0 0)
(4.466617 1.723162e-15 0 0.5440883 0 0)
(4.466619 0 0 0.5440883 0 0)
(3.978926 0 0 0.5117827 0 0)
(3.978933 7.710157e-16 0 0.5117833 0 0)
(3.436858 0 0 0.4660499 0 0)
(3.436865 0 0 0.4660506 0 0)
(2.838323 0 0 0.4050511 0 0)
(2.83833 0 0 0.4050518 0 0)
(2.185802 0 0 0.3276163 0 0)
(2.185806 8.500116e-16 0 0.3276167 0 0)
(1.484451 0 0 0.2331563 0 0)
(1.484452 0 0 0.2331564 0 0)
(0.8057746 0 0 0.1322727 0 0)
(0.8057741 0 0 0.1322726 0 0)
(0.3089634 0 0 0.05281995 0 0)
(0.3089628 0 0 0.05281982 0 0)
(0.1054205 0 0 0.01866529 0 0)
(0.1054205 0 0 0.01866528 0 0)
(0.03592846 0 0 0.006541148 0 0)
(0.03592842 0 0 0.006541137 0 0)
(0.01704176 0 0 0.003169472 0 0)
(0.01704171 0 0 0.003169461 0 0)
(0.003139275 0 0 0.0005925394 0 0)
(0.003139278 0 0 0.0005925396 0 0)
(0.001060425 7.025027e-19 0 0.0002017228 0 0)
(0.001060419 0 0 0.0002017214 0 0)
)
;

boundaryField
{
    leftandright
    {
        type            cyclic;
        value           nonuniform List<symmTensor> 
150
(
(2.180663e-07 0 0 3.675402e-12 0 0)
(1.136084e-05 0 0 8.826051e-10 0 0)
(7.582448e-05 0 0 1.415126e-08 0 0)
(0.0002791558 0 0 9.58385e-08 0 0)
(0.0007585806 0 0 4.145825e-07 0 0)
(0.001710143 0 0 1.358624e-06 0 0)
(0.003392726 5.103238e-38 0 3.680212e-06 0 0)
(0.006126887 0 0 8.66669e-06 0 0)
(0.01028641 4.180517e-22 0 1.831608e-05 0 0)
(0.01628119 0 0 3.548452e-05 0 0)
(0.02453191 0 0 6.396863e-05 0 0)
(0.03543948 6.686477e-37 0 0.0001084943 0 0)
(0.04935516 0 0 0.0001746064 0 0)
(0.06655884 -4.964062e-36 0 0.0002684884 0 0)
(0.08725214 0 0 0.0003967722 0 0)
(0.1115699 1.823962e-20 0 0.0005664149 0 0)
(0.1396094 0 0 0.0007847111 0 0)
(0.1714743 -6.176036e-20 0 0.001059492 0 0)
(0.2073291 0 0 0.001399538 0 0)
(0.2474447 9.576699e-20 0 0.001815108 0 0)
(0.2922022 0 0 0.002318264 0 0)
(0.3663027 -2.988585e-19 0 0.003129112 0 0)
(0.4513198 -3.759376e-19 0 0.004137336 0 0)
(0.5491677 0 0 0.005390472 0 0)
(0.6613512 5.70858e-19 0 0.006941159 0 0)
(0.7894428 6.926433e-19 0 0.008852441 0 0)
(0.93502 1.667235e-18 0 0.01119876 0 0)
(1.099557 0 0 0.0140663 0 0)
(1.284286 0 0 0.01755258 0 0)
(1.490036 0 0 0.02176501 0 0)
(1.717092 0 0 0.02681868 0 0)
(1.965075 -3.809722e-18 0 0.03283321 0 0)
(2.232874 1.322335e-17 0 0.03992912 0 0)
(2.51863 0 0 0.0482236 0 0)
(2.819778 -1.155545e-17 0 0.05782631 0 0)
(3.13314 0 0 0.06883509 0 0)
(3.455043 -1.471037e-17 0 0.08133195 0 0)
(3.781468 0 0 0.09537952 0 0)
(4.108198 0 0 0.1110179 0 0)
(4.430964 0 0 0.1282621 0 0)
(4.74557 0 0 0.1471005 0 0)
(5.048006 0 0 0.1674933 0 0)
(5.334529 0 0 0.1893725 0 0)
(5.601721 1.085238e-16 0 0.2126417 0 0)
(5.84653 5.757968e-17 0 0.2371769 0 0)
(6.066269 0 0 0.2628269 0 0)
(6.258619 0 0 0.2894143 0 0)
(6.421607 0 0 0.3167363 0 0)
(6.553558 -1.37056e-16 0 0.3445634 0 0)
(6.653055 -3.123328e-31 0 0.3726389 0 0)
(6.718884 0 0 0.4006752 0 0)
(6.749975 0 0 0.4283492 0 0)
(6.745338 0 0 0.4552942 0 0)
(6.704003 0 0 0.4810892 0 0)
(6.624951 0 0 0.5052449 0 0)
(6.507074 5.198467e-32 0 0.5271872 0 0)
(6.349111 0 0 0.5462371 0 0)
(6.149618 0 0 0.5615901 0 0)
(5.906971 1.12866e-31 0 0.5722988 0 0)
(5.619341 0 0 0.5772546 0 0)
(5.284778 0 0 0.5751858 0 0)
(4.901197 0 0 0.5646536 0 0)
(4.466618 8.615807e-16 0 0.5440883 0 0)
(3.978929 3.855076e-16 0 0.511783 0 0)
(3.436862 0 0 0.4660503 0 0)
(2.838327 0 0 0.4050515 0 0)
(2.185804 4.250055e-16 0 0.3276165 0 0)
(1.484451 0 0 0.2331564 0 0)
(0.8057744 0 0 0.1322727 0 0)
(0.3089631 0 0 0.05281989 0 0)
(0.1054205 0 0 0.01866529 0 0)
(0.03592844 0 0 0.006541142 0 0)
(0.01704174 0 0 0.003169467 0 0)
(0.003139276 0 0 0.0005925395 0 0)
(0.001060422 3.512502e-19 0 0.0002017221 0 0)
(2.180663e-07 0 0 3.675402e-12 0 0)
(1.136084e-05 0 0 8.826051e-10 0 0)
(7.582448e-05 0 0 1.415126e-08 0 0)
(0.0002791558 0 0 9.58385e-08 0 0)
(0.0007585806 0 0 4.145825e-07 0 0)
(0.001710143 0 0 1.358624e-06 0 0)
(0.003392726 5.670265e-38 0 3.680212e-06 0 0)
(0.006126887 0 0 8.66669e-06 0 0)
(0.01028641 4.180517e-22 0 1.831608e-05 0 0)
(0.01628119 0 0 3.548452e-05 0 0)
(0.02453191 0 0 6.396863e-05 0 0)
(0.03543948 6.686477e-37 0 0.0001084943 0 0)
(0.04935516 0 0 0.0001746064 0 0)
(0.06655884 -4.964062e-36 0 0.0002684884 0 0)
(0.08725214 0 0 0.0003967722 0 0)
(0.1115699 1.823962e-20 0 0.0005664149 0 0)
(0.1396094 0 0 0.0007847111 0 0)
(0.1714743 -6.176036e-20 0 0.001059492 0 0)
(0.2073291 0 0 0.001399538 0 0)
(0.2474447 9.576699e-20 0 0.001815108 0 0)
(0.2922022 0 0 0.002318264 0 0)
(0.3663027 -2.988585e-19 0 0.003129112 0 0)
(0.4513198 -3.759376e-19 0 0.004137336 0 0)
(0.5491677 0 0 0.005390472 0 0)
(0.6613512 5.70858e-19 0 0.006941159 0 0)
(0.7894428 6.926433e-19 0 0.008852441 0 0)
(0.93502 1.667235e-18 0 0.01119876 0 0)
(1.099557 0 0 0.0140663 0 0)
(1.284286 0 0 0.01755258 0 0)
(1.490036 0 0 0.02176501 0 0)
(1.717092 0 0 0.02681868 0 0)
(1.965075 -3.809722e-18 0 0.03283321 0 0)
(2.232874 1.322335e-17 0 0.03992912 0 0)
(2.51863 0 0 0.0482236 0 0)
(2.819778 -1.155545e-17 0 0.05782631 0 0)
(3.13314 0 0 0.06883509 0 0)
(3.455043 -1.471037e-17 0 0.08133195 0 0)
(3.781468 0 0 0.09537952 0 0)
(4.108198 0 0 0.1110179 0 0)
(4.430964 0 0 0.1282621 0 0)
(4.74557 0 0 0.1471005 0 0)
(5.048006 0 0 0.1674933 0 0)
(5.334529 0 0 0.1893725 0 0)
(5.601721 1.085238e-16 0 0.2126417 0 0)
(5.84653 5.757968e-17 0 0.2371769 0 0)
(6.066269 0 0 0.2628269 0 0)
(6.258619 0 0 0.2894143 0 0)
(6.421607 0 0 0.3167363 0 0)
(6.553558 -1.37056e-16 0 0.3445634 0 0)
(6.653055 -3.123328e-31 0 0.3726389 0 0)
(6.718884 0 0 0.4006752 0 0)
(6.749975 0 0 0.4283492 0 0)
(6.745338 0 0 0.4552942 0 0)
(6.704003 0 0 0.4810892 0 0)
(6.624951 0 0 0.5052449 0 0)
(6.507074 5.198467e-32 0 0.5271872 0 0)
(6.349111 0 0 0.5462371 0 0)
(6.149618 0 0 0.5615901 0 0)
(5.906971 1.12866e-31 0 0.5722988 0 0)
(5.619341 0 0 0.5772546 0 0)
(5.284778 0 0 0.5751858 0 0)
(4.901197 0 0 0.5646536 0 0)
(4.466618 8.615807e-16 0 0.5440883 0 0)
(3.978929 3.855076e-16 0 0.511783 0 0)
(3.436862 0 0 0.4660503 0 0)
(2.838327 0 0 0.4050515 0 0)
(2.185804 4.250055e-16 0 0.3276165 0 0)
(1.484451 0 0 0.2331564 0 0)
(0.8057744 0 0 0.1322727 0 0)
(0.3089631 0 0 0.05281989 0 0)
(0.1054205 0 0 0.01866529 0 0)
(0.03592844 0 0 0.006541142 0 0)
(0.01704174 0 0 0.003169467 0 0)
(0.003139276 0 0 0.0005925395 0 0)
(0.001060422 3.512502e-19 0 0.0002017221 0 0)
)
;
    }
    wall
    {
        type            calculated;
        value           nonuniform List<symmTensor> 2((1.432568e-09 0 0 9.311689e-10 0 0) (1.432566e-09 0 0 9.311676e-10 0 0));
    }
    frontAndBack
    {
        type            empty;
    }
    middle
    {
        type            symmetryPlane;
        value           nonuniform List<symmTensor> 2((0.001060425 0 0 0.0002017228 0 0) (0.001060419 0 0 0.0002017214 0 0));
    }
}


// ************************************************************************* //
