/*--------------------------------*- C++ -*----------------------------------*\
| =========                 |                                                 |
| \\      /  F ield         | foam-extend: Open Source CFD                    |
|  \\    /   O peration     | Version:     4.0                                |
|   \\  /    A nd           | Web:         http://www.foam-extend.org         |
|    \\/     M anipulation  |                                                 |
\*---------------------------------------------------------------------------*/
FoamFile
{
    version     2.0;
    format      ascii;
    class       volScalarField;
    location    "100";
    object      nut;
}
// * * * * * * * * * * * * * * * * * * * * * * * * * * * * * * * * * * * * * //

dimensions      [0 2 -1 0 0 0 0];

internalField   nonuniform List<scalar> 
150
(
3.873651e-10
3.873653e-10
2.020872e-08
2.020873e-08
1.3507e-07
1.3507e-07
4.980087e-07
4.98009e-07
1.355371e-06
1.355372e-06
3.060521e-06
3.060522e-06
6.082492e-06
6.082495e-06
1.100612e-05
1.100613e-05
1.852002e-05
1.852003e-05
2.938968e-05
2.938969e-05
4.441541e-05
4.441544e-05
6.437893e-05
6.437896e-05
8.998653e-05
8.998658e-05
0.0001218203
0.0001218204
0.0001603081
0.0001603082
0.0002057184
0.0002057185
0.000258179
0.0002581791
0.0003177124
0.0003177126
0.0003842751
0.0003842753
0.0004577899
0.0004577902
0.000539256
0.0005392564
0.000675208
0.0006752085
0.0008307728
0.0008307734
0.001007421
0.001007422
0.001206828
0.001206829
0.00143084
0.001430841
0.001681443
0.001681444
0.00196073
0.001960731
0.002270878
0.00227088
0.002614123
0.002614124
0.002992739
0.00299274
0.00340902
0.003409022
0.003865264
0.003865265
0.004363744
0.004363745
0.004906696
0.004906697
0.005496294
0.005496296
0.006134634
0.006134635
0.006823713
0.006823714
0.007565422
0.007565424
0.008361543
0.008361544
0.00921375
0.009213751
0.01012363
0.01012363
0.01109273
0.01109273
0.01212256
0.01212256
0.01321476
0.01321475
0.01437107
0.01437107
0.01559357
0.01559357
0.01688474
0.01688474
0.01824766
0.01824766
0.01968618
0.01968617
0.02120512
0.02120511
0.02281047
0.02281046
0.02450955
0.02450954
0.02631115
0.02631114
0.02822558
0.02822557
0.03026458
0.03026457
0.03244114
0.03244113
0.034769
0.03476899
0.03726203
0.03726201
0.0399332
0.03993319
0.04279351
0.04279349
0.04585052
0.0458505
0.04910706
0.04910704
0.05255992
0.05255989
0.05619899
0.05619896
0.06000688
0.06000686
0.06395909
0.06395906
0.06802364
0.06802361
0.07215549
0.07215545
0.0762689
0.07626887
0.08017376
0.08017372
0.08366283
0.08366279
0.08664802
0.08664798
0.08892799
0.08892795
0.09021581
0.09021576
)
;

boundaryField
{
    leftandright
    {
        type            cyclic;
        value           nonuniform List<scalar> 
150
(
3.873652e-10
2.020872e-08
1.3507e-07
4.980088e-07
1.355371e-06
3.060521e-06
6.082494e-06
1.100612e-05
1.852003e-05
2.938968e-05
4.441543e-05
6.437894e-05
8.998655e-05
0.0001218204
0.0001603082
0.0002057184
0.000258179
0.0003177125
0.0003842752
0.00045779
0.0005392562
0.0006752082
0.0008307731
0.001007421
0.001206828
0.00143084
0.001681443
0.001960731
0.002270879
0.002614123
0.002992739
0.003409021
0.003865264
0.004363744
0.004906696
0.005496295
0.006134634
0.006823713
0.007565423
0.008361544
0.009213751
0.01012363
0.01109273
0.01212256
0.01321476
0.01437107
0.01559357
0.01688474
0.01824766
0.01968617
0.02120511
0.02281046
0.02450954
0.02631115
0.02822557
0.03026458
0.03244113
0.034769
0.03726202
0.0399332
0.0427935
0.04585051
0.04910705
0.05255991
0.05619897
0.06000687
0.06395908
0.06802362
0.07215547
0.07626889
0.08017374
0.08366281
0.086648
0.08892797
0.09021579
3.873652e-10
2.020872e-08
1.3507e-07
4.980088e-07
1.355371e-06
3.060521e-06
6.082494e-06
1.100612e-05
1.852003e-05
2.938968e-05
4.441543e-05
6.437894e-05
8.998655e-05
0.0001218204
0.0001603082
0.0002057184
0.000258179
0.0003177125
0.0003842752
0.00045779
0.0005392562
0.0006752082
0.0008307731
0.001007421
0.001206828
0.00143084
0.001681443
0.001960731
0.002270879
0.002614123
0.002992739
0.003409021
0.003865264
0.004363744
0.004906696
0.005496295
0.006134634
0.006823713
0.007565423
0.008361544
0.009213751
0.01012363
0.01109273
0.01212256
0.01321476
0.01437107
0.01559357
0.01688474
0.01824766
0.01968617
0.02120511
0.02281046
0.02450954
0.02631115
0.02822557
0.03026458
0.03244113
0.034769
0.03726202
0.0399332
0.0427935
0.04585051
0.04910705
0.05255991
0.05619897
0.06000687
0.06395908
0.06802362
0.07215547
0.07626889
0.08017374
0.08366281
0.086648
0.08892797
0.09021579
)
;
    }
    wall
    {
        type            nutLowReWallFunction;
        Cmu             0.09;
        kappa           0.41;
        E               9.8;
        value           nonuniform List<scalar> 2(2.543109e-12 2.543109e-12);
    }
    frontAndBack
    {
        type            empty;
    }
    middle
    {
        type            symmetryPlane;
        value           nonuniform List<scalar> 2(0.09021581 0.09021576);
    }
}


// ************************************************************************* //
