/*--------------------------------*- C++ -*----------------------------------*\
| =========                 |                                                 |
| \\      /  F ield         | foam-extend: Open Source CFD                    |
|  \\    /   O peration     | Version:     4.0                                |
|   \\  /    A nd           | Web:         http://www.foam-extend.org         |
|    \\/     M anipulation  |                                                 |
\*---------------------------------------------------------------------------*/
FoamFile
{
    version     2.0;
    format      ascii;
    class       volScalarField;
    location    "100";
    object      p;
}
// * * * * * * * * * * * * * * * * * * * * * * * * * * * * * * * * * * * * * //

dimensions      [0 2 -2 0 0 0 0];

internalField   nonuniform List<scalar> 
150
(
-7.271455e-09
-0.05000001
-8.72474e-07
-0.05000087
-5.07927e-06
-0.05000508
-1.800571e-05
-0.050018
-4.782309e-05
-0.05004782
-0.0001058586
-0.05010585
-0.0002068377
-0.05020683
-0.0003690255
-0.05036902
-0.0006142699
-0.05061426
-0.0009679358
-0.05096793
-0.001458722
-0.05145871
-0.002118361
-0.05211835
-0.002981211
-0.0529812
-0.004083772
-0.05408376
-0.005464137
-0.05546413
-0.007161414
-0.05716141
-0.00921513
-0.05921512
-0.01166474
-0.06166474
-0.01454935
-0.06454934
-0.01790673
-0.06790673
-0.02176681
-0.07176681
-0.02614424
-0.07614424
-0.03104398
-0.08104398
-0.03646904
-0.08646905
-0.04241693
-0.09241693
-0.04887432
-0.09887433
-0.05581578
-0.1058158
-0.06320346
-0.1132035
-0.07098727
-0.1209873
-0.07910567
-0.1291057
-0.08748701
-0.137487
-0.09605145
-0.1460515
-0.1047132
-0.1547132
-0.1133831
-0.1633831
-0.121971
-0.171971
-0.1303884
-0.1803884
-0.1385508
-0.1885508
-0.1463793
-0.1963793
-0.1538023
-0.2038023
-0.1607573
-0.2107573
-0.1671909
-0.2171909
-0.1730602
-0.2230602
-0.1783326
-0.2283326
-0.1829863
-0.2329863
-0.1870101
-0.2370101
-0.1904035
-0.2404035
-0.1931764
-0.2431764
-0.1953492
-0.2453492
-0.1969527
-0.2469527
-0.1980281
-0.2480281
-0.1986274
-0.2486274
-0.1988135
-0.2488135
-0.1986604
-0.2486604
-0.198254
-0.248254
-0.1976924
-0.2476924
-0.1970864
-0.2470864
-0.1965593
-0.2465593
-0.1962473
-0.2462473
-0.1962987
-0.2462987
-0.196872
-0.246872
-0.1981335
-0.2481335
-0.2002527
-0.2502527
-0.2033981
-0.2533981
-0.207724
-0.257724
-0.2133741
-0.2633741
-0.220429
-0.2704289
-0.2289759
-0.2789759
-0.238646
-0.288646
-0.2485439
-0.2985439
-0.254269
-0.304269
-0.2580522
-0.3080522
-0.2485442
-0.2985442
-0.2659867
-0.3159867
-0.2028691
-0.2528691
-0.3561901
-0.4061901
)
;

boundaryField
{
    leftandright
    {
        type            fan;
        patchType       cyclic;
        f               1(-0.1);
        value           nonuniform List<scalar> 
150
(
0.02499999
0.02499913
0.02499492
0.024982
0.02495218
0.02489414
0.02479317
0.02463098
0.02438573
0.02403207
0.02354128
0.02288164
0.02201879
0.02091623
0.01953587
0.01783859
0.01578487
0.01333526
0.01045065
0.007093267
0.003233188
-0.001144244
-0.006043982
-0.01146904
-0.01741693
-0.02387432
-0.03081579
-0.03820347
-0.04598728
-0.05410568
-0.06248702
-0.07105145
-0.07971321
-0.08838308
-0.09697098
-0.1053884
-0.1135508
-0.1213793
-0.1288023
-0.1357573
-0.1421909
-0.1480602
-0.1533326
-0.1579863
-0.1620101
-0.1654035
-0.1681764
-0.1703492
-0.1719527
-0.1730281
-0.1736274
-0.1738135
-0.1736604
-0.173254
-0.1726924
-0.1720864
-0.1715593
-0.1712473
-0.1712987
-0.171872
-0.1731335
-0.1752527
-0.1783981
-0.182724
-0.1883741
-0.1954289
-0.2039759
-0.213646
-0.2235439
-0.229269
-0.2330522
-0.2235442
-0.2409867
-0.1778691
-0.3311901
-0.07500001
-0.07500087
-0.07500508
-0.075018
-0.07504782
-0.07510586
-0.07520683
-0.07536902
-0.07561427
-0.07596793
-0.07645872
-0.07711836
-0.07798121
-0.07908377
-0.08046413
-0.08216141
-0.08421513
-0.08666474
-0.08954935
-0.09290673
-0.09676681
-0.1011442
-0.106044
-0.111469
-0.1174169
-0.1238743
-0.1308158
-0.1382035
-0.1459873
-0.1541057
-0.162487
-0.1710515
-0.1797132
-0.1883831
-0.196971
-0.2053884
-0.2135508
-0.2213793
-0.2288023
-0.2357573
-0.2421909
-0.2480602
-0.2533326
-0.2579863
-0.2620101
-0.2654035
-0.2681764
-0.2703492
-0.2719527
-0.2730281
-0.2736274
-0.2738135
-0.2736604
-0.273254
-0.2726924
-0.2720864
-0.2715593
-0.2712473
-0.2712987
-0.271872
-0.2731335
-0.2752527
-0.2783981
-0.282724
-0.2883741
-0.2954289
-0.3039759
-0.313646
-0.3235439
-0.329269
-0.3330522
-0.3235442
-0.3409867
-0.2778691
-0.4311901
)
;
    }
    wall
    {
        type            zeroGradient;
    }
    frontAndBack
    {
        type            empty;
    }
    middle
    {
        type            symmetryPlane;
        value           nonuniform List<scalar> 2(-0.3561901 -0.4061901);
    }
}


// ************************************************************************* //
