/*--------------------------------*- C++ -*----------------------------------*\
| =========                 |                                                 |
| \\      /  F ield         | foam-extend: Open Source CFD                    |
|  \\    /   O peration     | Version:     4.0                                |
|   \\  /    A nd           | Web:         http://www.foam-extend.org         |
|    \\/     M anipulation  |                                                 |
\*---------------------------------------------------------------------------*/
FoamFile
{
    version     2.0;
    format      ascii;
    class       surfaceScalarField;
    location    "100";
    object      phi;
}
// * * * * * * * * * * * * * * * * * * * * * * * * * * * * * * * * * * * * * //

dimensions      [0 3 -1 0 0 0 0];

internalField   nonuniform List<scalar> 
223
(
1.475233e-05
4.464257e-13
-3.552076e-14
4.727018e-05
1.356501e-12
-1.34351e-13
8.473197e-05
1.75807e-12
-2.406619e-13
0.0001277256
1.752391e-12
-3.472997e-13
0.0001769008
1.58402e-12
-4.509085e-13
0.0002329739
1.395185e-12
-5.502914e-13
0.0002967325
1.244259e-12
-6.454166e-13
0.0003690395
1.150269e-12
-7.369985e-13
0.0004508369
1.112289e-12
-8.26436e-13
0.0005431488
1.121054e-12
-9.158821e-13
0.000647084
1.165521e-12
-1.008319e-12
0.0007638389
1.235844e-12
-1.107446e-12
0.0008946997
1.324274e-12
-1.217165e-12
0.001041046
1.425099e-12
-1.340616e-12
0.001204356
1.534534e-12
-1.478564e-12
0.001386211
1.652657e-12
-1.625532e-12
0.001588299
1.788139e-12
-1.76318e-12
0.001812428
1.953961e-12
-1.863205e-12
0.002060523
2.105855e-12
-1.950554e-12
0.002334639
2.154692e-12
-2.096373e-12
0.002636944
2.115652e-12
-2.268992e-12
0.002968919
2.064043e-12
-2.375649e-12
0.003331751
1.994649e-12
-2.407262e-12
0.003727203
1.873626e-12
-2.391221e-12
0.004157013
1.697529e-12
-2.334156e-12
0.004622887
1.474103e-12
-2.237804e-12
0.005126487
1.213596e-12
-2.106157e-12
0.005669433
9.296991e-13
-1.948833e-12
0.0062533
6.376729e-13
-1.782496e-12
0.006879626
3.468971e-13
-1.622971e-12
0.007549925
5.208385e-14
-1.470072e-12
0.008265707
-2.570615e-13
-1.311671e-12
0.009028498
-5.749144e-13
-1.138634e-12
0.009839871
-8.921133e-13
-9.463899e-13
0.01070147
-1.197118e-12
-7.238376e-13
0.01161505
-1.452781e-12
-4.625113e-13
0.0125825
-1.627118e-12
-1.620637e-13
0.01360584
-1.733767e-12
1.949005e-13
0.0146873
-1.785224e-12
6.097185e-13
0.0158293
-1.782752e-12
1.042789e-12
0.01703448
-1.766961e-12
1.461858e-12
0.0183057
-1.747478e-12
1.850178e-12
0.01964607
-1.646891e-12
2.109935e-12
0.02105893
-1.483354e-12
2.241381e-12
0.02254788
-1.356049e-12
2.399626e-12
0.02411676
-1.141948e-12
2.50077e-12
0.02576967
-7.740813e-13
2.512741e-12
0.02751093
-3.488133e-13
2.497245e-12
0.02934513
6.311474e-14
2.40668e-12
0.03127708
3.802991e-13
2.204152e-12
0.03331184
5.956185e-13
1.751226e-12
0.03545469
5.341324e-13
1.174048e-12
0.03771115
3.908864e-14
6.904377e-13
0.04008695
-8.181957e-13
3.76705e-13
0.04258809
-1.786979e-12
2.227965e-13
0.04522076
-2.558743e-12
1.213878e-13
0.04799146
-3.074007e-12
1.781966e-13
0.05090693
-3.497867e-12
6.736081e-13
0.05397422
-3.765889e-12
1.580356e-12
0.05720071
-3.303353e-12
2.285009e-12
0.06059416
-2.126226e-12
2.597382e-12
0.06416272
-1.08587e-12
2.919396e-12
0.067915
-3.407193e-13
2.850601e-12
0.07186009
3.402534e-13
1.73709e-12
0.07600757
9.102802e-13
-2.235928e-14
0.08036755
1.537585e-12
-1.537686e-12
0.08495051
2.303665e-12
-1.809324e-12
0.08976711
2.140263e-12
-2.041366e-12
0.09482624
6.477881e-14
-1.801058e-12
0.1001308
-1.355935e-12
-5.96622e-13
0.1056752
-3.27956e-13
-3.007388e-13
0.1114525
-5.221281e-13
-3.625399e-13
0.1174587
-2.644232e-14
3.536475e-13
0.1236898
5.305712e-13
-2.570186e-13
0.1301386
)
;

boundaryField
{
    leftandright
    {
        type            cyclic;
        value           nonuniform List<scalar> 
150
(
-1.475233e-05
-4.727018e-05
-8.473197e-05
-0.0001277256
-0.0001769008
-0.0002329739
-0.0002967325
-0.0003690395
-0.0004508369
-0.0005431488
-0.000647084
-0.0007638389
-0.0008946997
-0.001041046
-0.001204356
-0.001386211
-0.001588299
-0.001812428
-0.002060523
-0.002334639
-0.002636944
-0.002968919
-0.003331751
-0.003727203
-0.004157013
-0.004622887
-0.005126487
-0.005669433
-0.0062533
-0.006879626
-0.007549925
-0.008265707
-0.009028498
-0.009839871
-0.01070147
-0.01161505
-0.0125825
-0.01360584
-0.0146873
-0.0158293
-0.01703448
-0.0183057
-0.01964607
-0.02105893
-0.02254788
-0.02411676
-0.02576967
-0.02751093
-0.02934513
-0.03127708
-0.03331184
-0.03545469
-0.03771115
-0.04008695
-0.04258809
-0.04522076
-0.04799146
-0.05090693
-0.05397422
-0.05720071
-0.06059416
-0.06416272
-0.067915
-0.07186009
-0.07600757
-0.08036755
-0.08495051
-0.08976711
-0.09482624
-0.1001308
-0.1056752
-0.1114525
-0.1174587
-0.1236898
-0.1301386
1.475233e-05
4.727018e-05
8.473197e-05
0.0001277256
0.0001769008
0.0002329739
0.0002967325
0.0003690395
0.0004508369
0.0005431488
0.000647084
0.0007638389
0.0008946997
0.001041046
0.001204356
0.001386211
0.001588299
0.001812428
0.002060523
0.002334639
0.002636944
0.002968919
0.003331751
0.003727203
0.004157013
0.004622887
0.005126487
0.005669433
0.0062533
0.006879626
0.007549925
0.008265707
0.009028498
0.009839871
0.01070147
0.01161505
0.0125825
0.01360584
0.0146873
0.0158293
0.01703448
0.0183057
0.01964607
0.02105893
0.02254788
0.02411676
0.02576967
0.02751093
0.02934513
0.03127708
0.03331184
0.03545469
0.03771115
0.04008695
0.04258809
0.04522076
0.04799146
0.05090693
0.05397422
0.05720071
0.06059416
0.06416272
0.067915
0.07186009
0.07600757
0.08036755
0.08495051
0.08976711
0.09482624
0.1001308
0.1056752
0.1114525
0.1174587
0.1236898
0.1301386
)
;
    }
    wall
    {
        type            calculated;
        value           uniform 0;
    }
    frontAndBack
    {
        type            empty;
    }
    middle
    {
        type            symmetryPlane;
        value           uniform 0;
    }
}


// ************************************************************************* //
