/*--------------------------------*- C++ -*----------------------------------*\
| =========                 |                                                 |
| \\      /  F ield         | foam-extend: Open Source CFD                    |
|  \\    /   O peration     | Version:     4.0                                |
|   \\  /    A nd           | Web:         http://www.foam-extend.org         |
|    \\/     M anipulation  |                                                 |
\*---------------------------------------------------------------------------*/
FoamFile
{
    version     2.0;
    format      ascii;
    class       volScalarField;
    location    "100";
    object      QR;
}
// * * * * * * * * * * * * * * * * * * * * * * * * * * * * * * * * * * * * * //

dimensions      [0 0 -1 0 0 0 0];

internalField   nonuniform List<scalar> 
150
(
190.1309
190.1309
189.8762
189.8762
189.6057
189.6057
189.312
189.3121
188.9845
188.9845
188.6085
188.6085
188.1656
188.1656
187.6331
187.6331
186.9852
186.9852
186.1937
186.1937
185.2301
185.2301
184.0677
184.0678
182.6842
182.6842
181.0629
181.0629
179.1945
179.1945
177.0766
177.0766
174.7128
174.7128
172.1107
172.1107
169.2807
169.2807
166.2272
166.2272
162.6228
162.6228
158.1004
158.1004
152.9125
152.9125
147.3692
147.3692
141.5083
141.5083
135.3743
135.3743
129.0165
129.0165
122.4888
122.4888
115.8484
115.8484
109.1549
109.1549
102.4687
102.4687
95.84909
95.84909
89.35246
89.35245
83.03031
83.03031
76.92781
76.92781
71.08266
71.08266
65.52442
65.52442
60.27439
60.27439
55.34584
55.34584
50.74465
50.74465
46.47017
46.47017
42.51618
42.51618
38.87202
38.87202
35.52358
35.52358
32.45434
32.45434
29.64617
29.64617
27.08015
27.08015
24.73715
24.73715
22.59836
22.59836
20.64567
20.64567
18.86194
18.86194
17.23123
17.23123
15.73892
15.73892
14.37177
14.37177
13.11794
13.11794
11.96701
11.96701
10.90985
10.90985
9.938559
9.938559
9.046325
9.046325
8.227239
8.227239
7.47612
7.47612
6.788308
6.788308
6.159493
6.159493
5.585498
5.585498
5.062185
5.062185
4.584998
4.584998
4.148038
4.148038
3.738103
3.738103
3.324722
3.324722
2.868432
2.868432
2.359561
2.359561
1.827583
1.827583
1.301058
1.301058
0.7876761
0.7876753
0.2674699
0.2674692
)
;

boundaryField
{
    leftandright
    {
        type            cyclic;
        value           nonuniform List<scalar> 
150
(
190.1309
189.8762
189.6057
189.3121
188.9845
188.6085
188.1656
187.6331
186.9852
186.1937
185.2301
184.0678
182.6842
181.0629
179.1945
177.0766
174.7128
172.1107
169.2807
166.2272
162.6228
158.1004
152.9125
147.3692
141.5083
135.3743
129.0165
122.4888
115.8484
109.1549
102.4687
95.84909
89.35246
83.03031
76.92781
71.08266
65.52442
60.27439
55.34584
50.74465
46.47017
42.51618
38.87202
35.52358
32.45434
29.64617
27.08015
24.73715
22.59836
20.64567
18.86194
17.23123
15.73892
14.37177
13.11794
11.96701
10.90985
9.938559
9.046325
8.227239
7.47612
6.788308
6.159493
5.585498
5.062185
4.584998
4.148038
3.738103
3.324722
2.868432
2.359561
1.827583
1.301058
0.7876757
0.2674696
190.1309
189.8762
189.6057
189.3121
188.9845
188.6085
188.1656
187.6331
186.9852
186.1937
185.2301
184.0678
182.6842
181.0629
179.1945
177.0766
174.7128
172.1107
169.2807
166.2272
162.6228
158.1004
152.9125
147.3692
141.5083
135.3743
129.0165
122.4888
115.8484
109.1549
102.4687
95.84909
89.35246
83.03031
76.92781
71.08266
65.52442
60.27439
55.34584
50.74465
46.47017
42.51618
38.87202
35.52358
32.45434
29.64617
27.08015
24.73715
22.59836
20.64567
18.86194
17.23123
15.73892
14.37177
13.11794
11.96701
10.90985
9.938559
9.046325
8.227239
7.47612
6.788308
6.159493
5.585498
5.062185
4.584998
4.148038
3.738103
3.324722
2.868432
2.359561
1.827583
1.301058
0.7876757
0.2674696
)
;
    }
    wall
    {
        type            calculated;
        value           nonuniform List<scalar> 2(190.255 190.255);
    }
    frontAndBack
    {
        type            empty;
    }
    middle
    {
        type            symmetryPlane;
        value           nonuniform List<scalar> 2(0.5543725 0.5543726);
    }
}


// ************************************************************************* //
