/*--------------------------------*- C++ -*----------------------------------*\
| =========                 |                                                 |
| \\      /  F ield         | foam-extend: Open Source CFD                    |
|  \\    /   O peration     | Version:     4.0                                |
|   \\  /    A nd           | Web:         http://www.foam-extend.org         |
|    \\/     M anipulation  |                                                 |
\*---------------------------------------------------------------------------*/
FoamFile
{
    version     2.0;
    format      ascii;
    class       volSymmTensorField;
    location    "100";
    object      RStress;
}
// * * * * * * * * * * * * * * * * * * * * * * * * * * * * * * * * * * * * * //

dimensions      [0 2 -2 0 0 0 0];

internalField   nonuniform List<symmTensor> 
150
(
(0.001144043 -7.365007e-08 0 1.504668e-08 0 1.650515e-05)
(0.001144043 -7.365012e-08 0 1.504669e-08 0 1.650517e-05)
(0.01264928 -3.837155e-06 0 7.668767e-07 0 0.0001825388)
(0.01264928 -3.837157e-06 0 7.668773e-07 0 0.000182539)
(0.03439641 -2.561004e-05 0 5.010048e-06 0 0.0004965986)
(0.03439642 -2.561005e-05 0 5.010051e-06 0 0.000496599)
(0.06743567 -9.427905e-05 0 1.8071e-05 0 0.0009742286)
(0.06743569 -9.427911e-05 0 1.807102e-05 0 0.0009742294)
(0.1125383 -0.0002561441 0 4.817197e-05 0 0.001999169)
(0.1125383 -0.0002561443 0 4.8172e-05 0 0.00199917)
(0.1708632 -0.0005772403 0 0.0001067189 0 0.00366026)
(0.1708632 -0.0005772406 0 0.0001067189 0 0.003660262)
(0.2436077 -0.001144516 0 0.0002085319 0 0.00609935)
(0.2436077 -0.001144516 0 0.0002085321 0 0.006099353)
(0.3320139 -0.002065113 0 0.0003720007 0 0.009495289)
(0.332014 -0.002065114 0 0.000372001 0 0.009495293)
(0.4373738 -0.003462969 0 0.0006191453 0 0.01403817)
(0.4373739 -0.003462971 0 0.0006191458 0 0.01403818)
(0.5609975 -0.005472171 0 0.000975567 0 0.01992741)
(0.5609976 -0.005472174 0 0.0009755677 0 0.01992742)
(0.7041678 -0.00822707 0 0.001470279 0 0.02736899)
(0.704168 -0.008227075 0 0.00147028 0 0.027369)
(0.8680824 -0.01185008 0 0.002135416 0 0.03657183)
(0.8680826 -0.01185009 0 0.002135417 0 0.03657185)
(1.053788 -0.01643912 0 0.003005831 0 0.04774336)
(1.053788 -0.01643913 0 0.003005833 0 0.04774338)
(1.262112 -0.02205714 0 0.004118613 0 0.0610846)
(1.262113 -0.02205716 0 0.004118616 0 0.06108463)
(1.493605 -0.02872634 0 0.005512542 0 0.07678514)
(1.493605 -0.02872636 0 0.005512546 0 0.07678518)
(1.748492 -0.03642791 0 0.007227533 0 0.09501841)
(1.748492 -0.03642793 0 0.007227539 0 0.09501846)
(2.026652 -0.04510716 0 0.00930409 0 0.1159378)
(2.026653 -0.04510719 0 0.009304097 0 0.1159378)
(2.327629 -0.05468171 0 0.01178279 0 0.1396738)
(2.32763 -0.05468174 0 0.0117828 0 0.1396738)
(2.65066 -0.06505035 0 0.01470385 0 0.1663326)
(2.65066 -0.06505039 0 0.01470386 0 0.1663327)
(2.994745 -0.07609714 0 0.01810655 0 0.1959967)
(2.994746 -0.07609719 0 0.01810656 0 0.1959968)
(3.358721 -0.08769533 0 0.02202841 0 0.2287239)
(3.358721 -0.08769539 0 0.02202842 0 0.228724)
(3.739957 -0.1067507 0 0.02648717 0 0.2644118)
(3.739958 -0.1067507 0 0.02648719 0 0.264412)
(4.13101 -0.1270356 0 0.03148737 0 0.302713)
(4.131011 -0.1270356 0 0.03148739 0 0.3027132)
(4.525146 -0.1484628 0 0.03703942 0 0.343315)
(4.525147 -0.1484629 0 0.03703945 0 0.3433151)
(4.91513 -0.1707762 0 0.04314527 0 0.3858242)
(4.915131 -0.1707763 0 0.0431453 0 0.3858244)
(5.293486 -0.1936989 0 0.04979737 0 0.4297722)
(5.293487 -0.193699 0 0.0497974 0 0.4297724)
(5.652781 -0.2169339 0 0.05697744 0 0.4746255)
(5.652782 -0.216934 0 0.05697748 0 0.4746257)
(5.985922 -0.2401675 0 0.06465609 0 0.5198007)
(5.985923 -0.2401677 0 0.06465613 0 0.5198009)
(6.286461 -0.2630777 0 0.07279283 0 0.5646831)
(6.286462 -0.2630778 0 0.07279287 0 0.5646832)
(6.548857 -0.2853443 0 0.08133675 0 0.6086481)
(6.548858 -0.2853445 0 0.08133679 0 0.6086483)
(6.768704 -0.306662 0 0.09022763 0 0.6510845)
(6.768705 -0.3066621 0 0.09022767 0 0.6510847)
(6.942881 -0.3267515 0 0.09939753 0 0.6914158)
(6.942881 -0.3267516 0 0.09939757 0 0.6914159)
(7.069628 -0.3453708 0 0.1087727 0 0.7291207)
(7.069628 -0.3453709 0 0.1087727 0 0.7291209)
(7.148541 -0.362323 0 0.1182756 0 0.7637493)
(7.148541 -0.3623231 0 0.1182757 0 0.7637495)
(7.180486 -0.3774614 0 0.1278272 0 0.7949345)
(7.180486 -0.3774615 0 0.1278273 0 0.7949347)
(7.167452 -0.3906912 0 0.1373488 0 0.8223987)
(7.167452 -0.3906913 0 0.1373488 0 0.8223988)
(7.112363 -0.4019683 0 0.1467639 0 0.845955)
(7.112363 -0.4019684 0 0.1467639 0 0.8459551)
(7.018853 -0.4112951 0 0.156 0 0.8655046)
(7.018854 -0.4112952 0 0.156 0 0.8655047)
(6.89105 -0.4187147 0 0.1649895 0 0.8810302)
(6.89105 -0.4187147 0 0.1649896 0 0.8810303)
(6.733357 -0.4243036 0 0.1736714 0 0.8925865)
(6.733357 -0.4243037 0 0.1736714 0 0.8925865)
(6.550262 -0.4281645 0 0.1819912 0 0.9002897)
(6.550263 -0.4281646 0 0.1819912 0 0.9002898)
(6.346185 -0.4304182 0 0.1899018 0 0.9043064)
(6.346186 -0.4304182 0 0.1899019 0 0.9043065)
(6.125347 -0.4311966 0 0.1973641 0 0.9048421)
(6.125348 -0.4311966 0 0.1973641 0 0.9048421)
(5.891685 -0.4306369 0 0.2043465 0 0.9021311)
(5.891685 -0.4306369 0 0.2043465 0 0.9021311)
(5.64879 -0.4288762 0 0.2108255 0 0.8964276)
(5.64879 -0.4288761 0 0.2108255 0 0.8964276)
(5.399886 -0.4260473 0 0.2167854 0 0.8879981)
(5.399886 -0.4260472 0 0.2167854 0 0.8879981)
(5.147815 -0.4222763 0 0.2222185 0 0.8771154)
(5.147816 -0.4222762 0 0.2222185 0 0.8771154)
(4.895055 -0.4176804 0 0.2271249 0 0.8640539)
(4.895055 -0.4176804 0 0.2271249 0 0.8640539)
(4.643738 -0.4123672 0 0.2315124 0 0.8490865)
(4.643739 -0.4123671 0 0.2315124 0 0.8490864)
(4.395686 -0.4064343 0 0.2353967 0 0.8324823)
(4.395686 -0.4064342 0 0.2353966 0 0.8324823)
(4.152442 -0.3999696 0 0.2388008 0 0.8145056)
(4.152442 -0.3999695 0 0.2388007 0 0.8145055)
(3.915308 -0.3930525 0 0.2417551 0 0.7954146)
(3.915309 -0.3930524 0 0.2417551 0 0.7954145)
(3.68538 -0.3857539 0 0.244297 0 0.7754611)
(3.68538 -0.3857537 0 0.2442969 0 0.775461)
(3.463574 -0.3781377 0 0.2464699 0 0.7548901)
(3.463574 -0.3781376 0 0.2464698 0 0.75489)
(3.250655 -0.3702615 0 0.2483227 0 0.7339386)
(3.250655 -0.3702614 0 0.2483226 0 0.7339384)
(3.047251 -0.3621765 0 0.2499081 0 0.7128341)
(3.047252 -0.3621764 0 0.249908 0 0.712834)
(2.853871 -0.3539279 0 0.2512813 0 0.6917926)
(2.853871 -0.3539277 0 0.2512812 0 0.6917925)
(2.6709 -0.3455538 0 0.2524975 0 0.6710153)
(2.6709 -0.3455536 0 0.2524973 0 0.6710152)
(2.498608 -0.3370844 0 0.2536093 0 0.6506847)
(2.498608 -0.3370842 0 0.2536092 0 0.6506845)
(2.337135 -0.32854 0 0.2546642 0 0.6309592)
(2.337135 -0.3285399 0 0.254664 0 0.6309591)
(2.18649 -0.3199294 0 0.2557002 0 0.6119683)
(2.18649 -0.3199293 0 0.2557 0 0.6119682)
(2.046533 -0.3112475 0 0.2567434 0 0.5938062)
(2.046533 -0.3112473 0 0.2567433 0 0.5938061)
(1.916973 -0.3024746 0 0.2578022 0 0.5765254)
(1.916973 -0.3024745 0 0.2578021 0 0.5765252)
(1.79736 -0.2935733 0 0.2588673 0 0.5601309)
(1.797361 -0.2935732 0 0.2588671 0 0.5601308)
(1.687089 -0.2844897 0 0.2598952 0 0.544574)
(1.687089 -0.2844895 0 0.259895 0 0.5445738)
(1.585402 -0.2751314 0 0.2608353 0 0.5297457)
(1.585402 -0.2751313 0 0.2608352 0 0.5297456)
(1.491406 -0.2653048 0 0.2615486 0 0.5154708)
(1.491406 -0.2653046 0 0.2615485 0 0.5154707)
(1.404125 -0.2542794 0 0.2619616 0 0.5015052)
(1.404125 -0.2542793 0 0.2619615 0 0.5015051)
(1.322666 -0.2398969 0 0.2614351 0 0.4875515)
(1.322666 -0.2398968 0 0.261435 0 0.4875514)
(1.246811 -0.218772 0 0.2607965 0 0.4733673)
(1.246812 -0.2187719 0 0.2607964 0 0.4733672)
(1.177924 -0.189173 0 0.2568928 0 0.4589567)
(1.177924 -0.1891729 0 0.2568926 0 0.4589566)
(1.118417 -0.1528832 0 0.2578863 0 0.4449836)
(1.118417 -0.1528831 0 0.2578861 0 0.4449835)
(1.07025 -0.1125758 0 0.2424803 0 0.4327686)
(1.07025 -0.1125758 0 0.2424801 0 0.4327685)
(1.035689 -0.0693927 0 0.261362 0 0.4235603)
(1.035689 -0.0693926 0 0.2613619 0 0.4235602)
(1.017088 -0.02357848 0 0.2388159 0 0.4184604)
(1.017089 -0.0235784 0 0.2388158 0 0.4184602)
)
;

boundaryField
{
    leftandright
    {
        type            cyclic;
        value           nonuniform List<symmTensor> 
150
(
(0.001144043 -7.365009e-08 0 1.504669e-08 0 1.650516e-05)
(0.01264928 -3.837156e-06 0 7.66877e-07 0 0.0001825389)
(0.03439641 -2.561004e-05 0 5.010049e-06 0 0.0004965988)
(0.06743568 -9.427908e-05 0 1.807101e-05 0 0.000974229)
(0.1125383 -0.0002561442 0 4.817198e-05 0 0.00199917)
(0.1708632 -0.0005772404 0 0.0001067189 0 0.003660261)
(0.2436077 -0.001144516 0 0.000208532 0 0.006099351)
(0.3320139 -0.002065113 0 0.0003720009 0 0.009495291)
(0.4373738 -0.00346297 0 0.0006191455 0 0.01403817)
(0.5609976 -0.005472173 0 0.0009755674 0 0.01992741)
(0.7041679 -0.008227072 0 0.00147028 0 0.027369)
(0.8680825 -0.01185009 0 0.002135416 0 0.03657184)
(1.053788 -0.01643912 0 0.003005832 0 0.04774337)
(1.262113 -0.02205715 0 0.004118614 0 0.06108461)
(1.493605 -0.02872635 0 0.005512544 0 0.07678516)
(1.748492 -0.03642792 0 0.007227536 0 0.09501843)
(2.026653 -0.04510717 0 0.009304094 0 0.1159378)
(2.327629 -0.05468172 0 0.0117828 0 0.1396738)
(2.65066 -0.06505037 0 0.01470386 0 0.1663327)
(2.994746 -0.07609716 0 0.01810655 0 0.1959968)
(3.358721 -0.08769536 0 0.02202842 0 0.2287239)
(3.739957 -0.1067507 0 0.02648718 0 0.2644119)
(4.131011 -0.1270356 0 0.03148738 0 0.3027131)
(4.525146 -0.1484629 0 0.03703943 0 0.343315)
(4.915131 -0.1707762 0 0.04314529 0 0.3858243)
(5.293487 -0.193699 0 0.04979738 0 0.4297723)
(5.652781 -0.216934 0 0.05697746 0 0.4746256)
(5.985923 -0.2401676 0 0.06465611 0 0.5198008)
(6.286461 -0.2630777 0 0.07279285 0 0.5646831)
(6.548857 -0.2853444 0 0.08133677 0 0.6086482)
(6.768704 -0.306662 0 0.09022765 0 0.6510846)
(6.942881 -0.3267516 0 0.09939755 0 0.6914158)
(7.069628 -0.3453709 0 0.1087727 0 0.7291208)
(7.148541 -0.362323 0 0.1182757 0 0.7637494)
(7.180486 -0.3774614 0 0.1278273 0 0.7949346)
(7.167452 -0.3906913 0 0.1373488 0 0.8223987)
(7.112363 -0.4019684 0 0.1467639 0 0.845955)
(7.018854 -0.4112951 0 0.156 0 0.8655047)
(6.89105 -0.4187147 0 0.1649896 0 0.8810302)
(6.733357 -0.4243037 0 0.1736714 0 0.8925865)
(6.550262 -0.4281645 0 0.1819912 0 0.9002898)
(6.346186 -0.4304182 0 0.1899018 0 0.9043064)
(6.125348 -0.4311966 0 0.1973641 0 0.9048421)
(5.891685 -0.4306369 0 0.2043465 0 0.9021311)
(5.64879 -0.4288761 0 0.2108255 0 0.8964276)
(5.399886 -0.4260473 0 0.2167854 0 0.8879981)
(5.147815 -0.4222763 0 0.2222185 0 0.8771154)
(4.895055 -0.4176804 0 0.2271249 0 0.8640539)
(4.643738 -0.4123672 0 0.2315124 0 0.8490865)
(4.395686 -0.4064342 0 0.2353967 0 0.8324823)
(4.152442 -0.3999696 0 0.2388008 0 0.8145056)
(3.915308 -0.3930524 0 0.2417551 0 0.7954145)
(3.68538 -0.3857538 0 0.244297 0 0.775461)
(3.463574 -0.3781376 0 0.2464699 0 0.75489)
(3.250655 -0.3702614 0 0.2483226 0 0.7339385)
(3.047251 -0.3621765 0 0.2499081 0 0.712834)
(2.853871 -0.3539278 0 0.2512812 0 0.6917926)
(2.6709 -0.3455537 0 0.2524974 0 0.6710153)
(2.498608 -0.3370843 0 0.2536093 0 0.6506846)
(2.337135 -0.3285399 0 0.2546641 0 0.6309591)
(2.18649 -0.3199293 0 0.2557001 0 0.6119683)
(2.046533 -0.3112474 0 0.2567434 0 0.5938061)
(1.916973 -0.3024745 0 0.2578022 0 0.5765253)
(1.797361 -0.2935733 0 0.2588672 0 0.5601309)
(1.687089 -0.2844896 0 0.2598951 0 0.5445739)
(1.585402 -0.2751314 0 0.2608353 0 0.5297457)
(1.491406 -0.2653047 0 0.2615486 0 0.5154708)
(1.404125 -0.2542793 0 0.2619616 0 0.5015051)
(1.322666 -0.2398969 0 0.261435 0 0.4875515)
(1.246812 -0.218772 0 0.2607964 0 0.4733673)
(1.177924 -0.1891729 0 0.2568927 0 0.4589567)
(1.118417 -0.1528831 0 0.2578862 0 0.4449835)
(1.07025 -0.1125758 0 0.2424802 0 0.4327686)
(1.035689 -0.06939265 0 0.2613619 0 0.4235602)
(1.017089 -0.02357844 0 0.2388158 0 0.4184603)
(0.001144043 -7.365009e-08 0 1.504669e-08 0 1.650516e-05)
(0.01264928 -3.837156e-06 0 7.66877e-07 0 0.0001825389)
(0.03439641 -2.561004e-05 0 5.010049e-06 0 0.0004965988)
(0.06743568 -9.427908e-05 0 1.807101e-05 0 0.000974229)
(0.1125383 -0.0002561442 0 4.817198e-05 0 0.00199917)
(0.1708632 -0.0005772404 0 0.0001067189 0 0.003660261)
(0.2436077 -0.001144516 0 0.000208532 0 0.006099351)
(0.3320139 -0.002065113 0 0.0003720009 0 0.009495291)
(0.4373738 -0.00346297 0 0.0006191455 0 0.01403817)
(0.5609976 -0.005472173 0 0.0009755674 0 0.01992741)
(0.7041679 -0.008227072 0 0.00147028 0 0.027369)
(0.8680825 -0.01185009 0 0.002135416 0 0.03657184)
(1.053788 -0.01643912 0 0.003005832 0 0.04774337)
(1.262113 -0.02205715 0 0.004118614 0 0.06108461)
(1.493605 -0.02872635 0 0.005512544 0 0.07678516)
(1.748492 -0.03642792 0 0.007227536 0 0.09501843)
(2.026653 -0.04510717 0 0.009304094 0 0.1159378)
(2.327629 -0.05468172 0 0.0117828 0 0.1396738)
(2.65066 -0.06505037 0 0.01470386 0 0.1663327)
(2.994746 -0.07609716 0 0.01810655 0 0.1959968)
(3.358721 -0.08769536 0 0.02202842 0 0.2287239)
(3.739957 -0.1067507 0 0.02648718 0 0.2644119)
(4.131011 -0.1270356 0 0.03148738 0 0.3027131)
(4.525146 -0.1484629 0 0.03703943 0 0.343315)
(4.915131 -0.1707762 0 0.04314529 0 0.3858243)
(5.293487 -0.193699 0 0.04979738 0 0.4297723)
(5.652781 -0.216934 0 0.05697746 0 0.4746256)
(5.985923 -0.2401676 0 0.06465611 0 0.5198008)
(6.286461 -0.2630777 0 0.07279285 0 0.5646831)
(6.548857 -0.2853444 0 0.08133677 0 0.6086482)
(6.768704 -0.306662 0 0.09022765 0 0.6510846)
(6.942881 -0.3267516 0 0.09939755 0 0.6914158)
(7.069628 -0.3453709 0 0.1087727 0 0.7291208)
(7.148541 -0.362323 0 0.1182757 0 0.7637494)
(7.180486 -0.3774614 0 0.1278273 0 0.7949346)
(7.167452 -0.3906913 0 0.1373488 0 0.8223987)
(7.112363 -0.4019684 0 0.1467639 0 0.845955)
(7.018854 -0.4112951 0 0.156 0 0.8655047)
(6.89105 -0.4187147 0 0.1649896 0 0.8810302)
(6.733357 -0.4243037 0 0.1736714 0 0.8925865)
(6.550262 -0.4281645 0 0.1819912 0 0.9002898)
(6.346186 -0.4304182 0 0.1899018 0 0.9043064)
(6.125348 -0.4311966 0 0.1973641 0 0.9048421)
(5.891685 -0.4306369 0 0.2043465 0 0.9021311)
(5.64879 -0.4288761 0 0.2108255 0 0.8964276)
(5.399886 -0.4260473 0 0.2167854 0 0.8879981)
(5.147815 -0.4222763 0 0.2222185 0 0.8771154)
(4.895055 -0.4176804 0 0.2271249 0 0.8640539)
(4.643738 -0.4123672 0 0.2315124 0 0.8490865)
(4.395686 -0.4064342 0 0.2353967 0 0.8324823)
(4.152442 -0.3999696 0 0.2388008 0 0.8145056)
(3.915308 -0.3930524 0 0.2417551 0 0.7954145)
(3.68538 -0.3857538 0 0.244297 0 0.775461)
(3.463574 -0.3781376 0 0.2464699 0 0.75489)
(3.250655 -0.3702614 0 0.2483226 0 0.7339385)
(3.047251 -0.3621765 0 0.2499081 0 0.712834)
(2.853871 -0.3539278 0 0.2512812 0 0.6917926)
(2.6709 -0.3455537 0 0.2524974 0 0.6710153)
(2.498608 -0.3370843 0 0.2536093 0 0.6506846)
(2.337135 -0.3285399 0 0.2546641 0 0.6309591)
(2.18649 -0.3199293 0 0.2557001 0 0.6119683)
(2.046533 -0.3112474 0 0.2567434 0 0.5938061)
(1.916973 -0.3024745 0 0.2578022 0 0.5765253)
(1.797361 -0.2935733 0 0.2588672 0 0.5601309)
(1.687089 -0.2844896 0 0.2598951 0 0.5445739)
(1.585402 -0.2751314 0 0.2608353 0 0.5297457)
(1.491406 -0.2653047 0 0.2615486 0 0.5154708)
(1.404125 -0.2542793 0 0.2619616 0 0.5015051)
(1.322666 -0.2398969 0 0.261435 0 0.4875515)
(1.246812 -0.218772 0 0.2607964 0 0.4733673)
(1.177924 -0.1891729 0 0.2568927 0 0.4589567)
(1.118417 -0.1528831 0 0.2578862 0 0.4449835)
(1.07025 -0.1125758 0 0.2424802 0 0.4327686)
(1.035689 -0.06939265 0 0.2613619 0 0.4235602)
(1.017089 -0.02357844 0 0.2388158 0 0.4184603)
)
;
    }
    wall
    {
        type            calculated;
        value           nonuniform List<symmTensor> 2((3.333333e-11 -4.838393e-10 0 9.999975e-11 0 6.666667e-11) (3.333333e-11 -4.838393e-10 0 9.999975e-11 0 6.666667e-11));
    }
    frontAndBack
    {
        type            empty;
    }
    middle
    {
        type            symmetryPlane;
        value           nonuniform List<symmTensor> 2((1.017088 0 0 0.3477311 0 0.4184604) (1.017089 0 0 0.347731 0 0.4184602));
    }
}


// ************************************************************************* //
