/*--------------------------------*- C++ -*----------------------------------*\
| =========                 |                                                 |
| \\      /  F ield         | foam-extend: Open Source CFD                    |
|  \\    /   O peration     | Version:     4.0                                |
|   \\  /    A nd           | Web:         http://www.foam-extend.org         |
|    \\/     M anipulation  |                                                 |
\*---------------------------------------------------------------------------*/
FoamFile
{
    version     2.0;
    format      ascii;
    class       volSymmTensorField;
    location    "100";
    object      tauP;
}
// * * * * * * * * * * * * * * * * * * * * * * * * * * * * * * * * * * * * * //

dimensions      [0 2 -2 0 0 0 0];

internalField   nonuniform List<symmTensor> 
150
(
(4.454808 0.04731943 0 2.894555e-06 0 1.662505e-06)
(4.454802 0.04731933 0 2.893079e-06 0 1.662424e-06)
(4.452925 0.04730682 0 2.849926e-06 0 1.540928e-06)
(4.45292 0.04730672 0 2.848432e-06 0 1.540834e-06)
(4.449523 0.04728663 0 2.838275e-06 0 1.358012e-06)
(4.449518 0.04728654 0 2.836824e-06 0 1.35791e-06)
(4.444895 0.04726295 0 2.927921e-06 0 1.154712e-06)
(4.44489 0.04726287 0 2.926563e-06 0 1.154604e-06)
(4.439244 0.04723909 0 3.187051e-06 0 9.570868e-07)
(4.439239 0.04723901 0 3.185825e-06 0 9.569745e-07)
(4.432675 0.0472177 0 3.69198e-06 0 7.776149e-07)
(4.432671 0.04721763 0 3.69091e-06 0 7.774969e-07)
(4.425208 0.04720112 0 4.537925e-06 0 6.172419e-07)
(4.425205 0.04720106 0 4.537019e-06 0 6.171153e-07)
(4.416798 0.04719174 0 5.852194e-06 0 4.680819e-07)
(4.416795 0.0471917 0 5.851443e-06 0 4.679429e-07)
(4.407364 0.04719257 0 7.808969e-06 0 3.166509e-07)
(4.407361 0.04719253 0 7.808352e-06 0 3.164956e-07)
(4.396834 0.04720779 0 1.064431e-05 0 1.474519e-07)
(4.396832 0.04720776 0 1.06438e-05 0 1.472768e-07)
(4.385203 0.04724343 0 1.466955e-05 0 -5.336501e-08)
(4.385201 0.04724341 0 1.466913e-05 0 -5.356292e-08)
(4.372585 0.04730801 0 2.028146e-05 0 -2.946444e-07)
(4.372584 0.04730799 0 2.02811e-05 0 -2.948689e-07)
(4.359277 0.04741303 0 2.796815e-05 0 -5.775623e-07)
(4.359275 0.04741301 0 2.796786e-05 0 -5.778194e-07)
(4.345794 0.04757342 0 3.831217e-05 0 -8.93876e-07)
(4.345792 0.0475734 0 3.831193e-05 0 -8.941761e-07)
(4.332908 0.04780789 0 5.199477e-05 0 -1.224857e-06)
(4.332906 0.04780787 0 5.19946e-05 0 -1.225216e-06)
(4.321655 0.04813943 0 6.981017e-05 0 -1.540051e-06)
(4.321653 0.04813942 0 6.981005e-05 0 -1.540488e-06)
(4.313323 0.04859611 0 9.270347e-05 0 -1.794728e-06)
(4.31332 0.0485961 0 9.27034e-05 0 -1.795261e-06)
(4.309383 0.04921241 0 0.0001218535 0 -1.926737e-06)
(4.309381 0.0492124 0 0.0001218534 0 -1.927381e-06)
(4.311263 0.05003035 0 0.0001588317 0 -1.862722e-06)
(4.31126 0.05003034 0 0.0001588317 0 -1.863479e-06)
(4.319574 0.05109651 0 0.0002058774 0 -1.576968e-06)
(4.31957 0.0510965 0 0.0002058775 0 -1.577831e-06)
(4.331941 0.05244077 0 0.0002662611 0 -1.329624e-06)
(4.331937 0.05244075 0 0.0002662612 0 -1.330581e-06)
(4.345987 0.05410086 0 0.000346031 0 -1.373656e-06)
(4.345983 0.05410084 0 0.000346031 0 -1.374724e-06)
(4.363432 0.0561373 0 0.0004474644 0 -1.571207e-06)
(4.363426 0.05613727 0 0.0004474644 0 -1.572382e-06)
(4.38824 0.05863235 0 0.000574628 0 -1.603017e-06)
(4.388234 0.05863231 0 0.0005746278 0 -1.604261e-06)
(4.421479 0.06164057 0 0.0007324556 0 -1.450794e-06)
(4.421473 0.06164052 0 0.0007324552 0 -1.45206e-06)
(4.462691 0.06520651 0 0.0009269572 0 -1.179169e-06)
(4.462685 0.06520647 0 0.0009269566 0 -1.180407e-06)
(4.51059 0.06937064 0 0.001165352 0 -8.511862e-07)
(4.510585 0.06937059 0 0.001165351 0 -8.523586e-07)
(4.563332 0.07416789 0 0.001456092 0 -5.09852e-07)
(4.563327 0.07416782 0 0.001456091 0 -5.109473e-07)
(4.618608 0.07962306 0 0.001808804 0 -1.822074e-07)
(4.618604 0.07962299 0 0.001808802 0 -1.833406e-07)
(4.673707 0.08574565 0 0.002234134 0 1.140164e-07)
(4.673702 0.08574557 0 0.002234133 0 1.128936e-07)
(4.725633 0.09252544 0 0.002743524 0 3.670225e-07)
(4.725628 0.09252536 0 0.002743522 0 3.659086e-07)
(4.771284 0.09992971 0 0.00334889 0 5.704283e-07)
(4.771279 0.09992959 0 0.003348886 0 5.692701e-07)
(4.807666 0.1079024 0 0.004062254 0 7.231611e-07)
(4.807659 0.1079023 0 0.004062248 0 7.218677e-07)
(4.8321 0.1163653 0 0.004895318 0 8.285432e-07)
(4.832093 0.1163652 0 0.004895312 0 8.271398e-07)
(4.842399 0.125221 0 0.005859043 0 8.929251e-07)
(4.842392 0.1252208 0 0.005859036 0 8.916464e-07)
(4.83698 0.1343566 0 0.00696321 0 9.246808e-07)
(4.836974 0.1343564 0 0.006963201 0 9.234876e-07)
(4.814906 0.1436489 0 0.008216013 0 9.31608e-07)
(4.814903 0.1436487 0 0.008216005 0 9.305204e-07)
(4.775876 0.152969 0 0.009623711 0 9.203593e-07)
(4.775873 0.1529688 0 0.009623701 0 9.193229e-07)
(4.720151 0.1621869 0 0.0111903 0 8.957177e-07)
(4.720149 0.1621868 0 0.01119029 0 8.947762e-07)
(4.648466 0.1711757 0 0.01291729 0 8.611402e-07)
(4.648467 0.1711756 0 0.01291727 0 8.604975e-07)
(4.561919 0.1798146 0 0.01480349 0 8.191045e-07)
(4.561918 0.1798145 0 0.01480347 0 8.183719e-07)
(4.461849 0.1879916 0 0.01684493 0 7.706762e-07)
(4.461848 0.1879915 0 0.01684492 0 7.701724e-07)
(4.34974 0.1956051 0 0.01903483 0 7.176106e-07)
(4.349739 0.1956051 0 0.01903482 0 7.170604e-07)
(4.227116 0.2025648 0 0.02136355 0 6.60009e-07)
(4.227117 0.2025647 0 0.02136354 0 6.596949e-07)
(4.095485 0.2087914 0 0.02381874 0 5.996522e-07)
(4.095486 0.2087914 0 0.02381872 0 5.994088e-07)
(3.956262 0.2142166 0 0.02638528 0 5.375587e-07)
(3.956265 0.2142166 0 0.02638526 0 5.376194e-07)
(3.810743 0.2187816 0 0.02904549 0 4.755462e-07)
(3.810746 0.2187816 0 0.02904548 0 4.756262e-07)
(3.660074 0.2224365 0 0.03177909 0 4.153074e-07)
(3.660075 0.2224364 0 0.03177907 0 4.150916e-07)
(3.505235 0.2251373 0 0.03456315 0 3.580021e-07)
(3.505238 0.2251374 0 0.03456313 0 3.578927e-07)
(3.347057 0.2268456 0 0.03737198 0 3.055149e-07)
(3.34706 0.2268456 0 0.03737196 0 3.055154e-07)
(3.18621 0.2275253 0 0.04017676 0 2.592528e-07)
(3.186213 0.2275253 0 0.04017674 0 2.592082e-07)
(3.023234 0.2271419 0 0.04294506 0 2.205082e-07)
(3.023236 0.2271419 0 0.04294503 0 2.20397e-07)
(2.858552 0.2256605 0 0.04564004 0 1.905034e-07)
(2.858554 0.2256605 0 0.04564 0 1.903322e-07)
(2.69249 0.2230442 0 0.0482193 0 1.702017e-07)
(2.692491 0.2230441 0 0.04821925 0 1.69826e-07)
(2.525309 0.2192533 0 0.05063362 0 1.60333e-07)
(2.525308 0.2192532 0 0.05063357 0 1.596196e-07)
(2.357212 0.2142454 0 0.0528251 0 1.610946e-07)
(2.357212 0.2142453 0 0.05282505 0 1.603691e-07)
(2.188385 0.2079749 0 0.05472539 0 1.734446e-07)
(2.188384 0.207975 0 0.05472534 0 1.727762e-07)
(2.018989 0.2003945 0 0.05625347 0 1.975006e-07)
(2.018989 0.2003945 0 0.05625343 0 1.968579e-07)
(1.849185 0.1914568 0 0.05731399 0 2.339049e-07)
(1.849185 0.1914568 0 0.05731395 0 2.33007e-07)
(1.679118 0.1811157 0 0.05779546 0 2.81371e-07)
(1.679118 0.1811159 0 0.05779546 0 2.806118e-07)
(1.508931 0.1693315 0 0.05757016 0 3.397342e-07)
(1.508932 0.1693319 0 0.0575702 0 3.393448e-07)
(1.338727 0.1560702 0 0.05649359 0 4.08158e-07)
(1.338729 0.1560704 0 0.05649365 0 4.077115e-07)
(1.168589 0.141311 0 0.05440853 0 4.851325e-07)
(1.168591 0.1413112 0 0.05440861 0 4.84947e-07)
(0.9984902 0.1250367 0 0.05114355 0 5.648033e-07)
(0.9984928 0.1250371 0 0.05114366 0 5.644998e-07)
(0.8284695 0.1072648 0 0.04653141 0 6.395555e-07)
(0.828472 0.1072651 0 0.04653153 0 6.392704e-07)
(0.6583091 0.08798982 0 0.04038862 0 6.718394e-07)
(0.6583111 0.0879901 0 0.04038873 0 6.71669e-07)
(0.4886941 0.06737134 0 0.03261767 0 6.10741e-07)
(0.4886952 0.06737152 0 0.03261774 0 6.104593e-07)
(0.3212153 0.04569249 0 0.02320284 0 2.769737e-07)
(0.3212156 0.04569256 0 0.02320287 0 2.767548e-07)
(0.1703623 0.02521007 0 0.01327969 0 -2.844012e-07)
(0.1703623 0.02521007 0 0.01327969 0 -2.842135e-07)
(0.06516158 0.01029015 0 0.005413292 0 -5.931941e-07)
(0.06516153 0.01029013 0 0.005413287 0 -5.926442e-07)
(0.02189428 0.003997523 0 0.001959882 0 -2.807015e-07)
(0.02189428 0.003997525 0 0.001959882 0 -2.793636e-07)
(0.007350426 0.001700042 0 0.0006493602 0 -9.514933e-08)
(0.007350421 0.001700041 0 0.0006493607 0 -9.508186e-08)
(0.00323431 0.001030302 0 0.0003882423 0 -1.111134e-08)
(0.003234302 0.0010303 0 0.0003882389 0 -1.418598e-08)
(0.0007263354 0.0004192923 0 -1.23211e-05 0 -1.605972e-08)
(0.0007263388 0.0004192933 0 -1.232017e-05 0 -1.516027e-08)
(0.0001646969 0.0001572592 0 6.611986e-05 0 -2.320651e-09)
(0.0001646945 0.0001572582 0 6.611777e-05 0 -4.069745e-09)
)
;

boundaryField
{
    leftandright
    {
        type            cyclic;
        value           nonuniform List<symmTensor> 
150
(
(4.454805 0.04731938 0 2.893817e-06 0 1.662465e-06)
(4.452922 0.04730677 0 2.849179e-06 0 1.540881e-06)
(4.44952 0.04728658 0 2.83755e-06 0 1.357961e-06)
(4.444893 0.04726291 0 2.927242e-06 0 1.154658e-06)
(4.439241 0.04723905 0 3.186438e-06 0 9.570306e-07)
(4.432673 0.04721766 0 3.691445e-06 0 7.775559e-07)
(4.425207 0.04720109 0 4.537472e-06 0 6.171786e-07)
(4.416797 0.04719172 0 5.851818e-06 0 4.680124e-07)
(4.407362 0.04719255 0 7.80866e-06 0 3.165732e-07)
(4.396833 0.04720777 0 1.064405e-05 0 1.473644e-07)
(4.385202 0.04724342 0 1.466934e-05 0 -5.346397e-08)
(4.372585 0.047308 0 2.028128e-05 0 -2.947566e-07)
(4.359276 0.04741302 0 2.796801e-05 0 -5.776908e-07)
(4.345793 0.04757341 0 3.831205e-05 0 -8.94026e-07)
(4.332907 0.04780788 0 5.199469e-05 0 -1.225037e-06)
(4.321654 0.04813942 0 6.981011e-05 0 -1.540269e-06)
(4.313322 0.0485961 0 9.270343e-05 0 -1.794995e-06)
(4.309382 0.0492124 0 0.0001218534 0 -1.927059e-06)
(4.311262 0.05003035 0 0.0001588317 0 -1.863101e-06)
(4.319572 0.0510965 0 0.0002058775 0 -1.577399e-06)
(4.331939 0.05244076 0 0.0002662612 0 -1.330102e-06)
(4.345985 0.05410085 0 0.000346031 0 -1.37419e-06)
(4.363429 0.05613729 0 0.0004474644 0 -1.571795e-06)
(4.388237 0.05863233 0 0.0005746279 0 -1.603639e-06)
(4.421476 0.06164054 0 0.0007324554 0 -1.451427e-06)
(4.462688 0.06520649 0 0.0009269569 0 -1.179788e-06)
(4.510587 0.06937062 0 0.001165351 0 -8.517724e-07)
(4.56333 0.07416785 0 0.001456091 0 -5.103997e-07)
(4.618606 0.07962302 0 0.001808803 0 -1.82774e-07)
(4.673705 0.08574561 0 0.002234134 0 1.13455e-07)
(4.72563 0.0925254 0 0.002743523 0 3.664656e-07)
(4.771281 0.09992965 0 0.003348888 0 5.698492e-07)
(4.807663 0.1079023 0 0.004062251 0 7.225144e-07)
(4.832097 0.1163653 0 0.004895315 0 8.278415e-07)
(4.842396 0.1252209 0 0.005859039 0 8.922858e-07)
(4.836977 0.1343565 0 0.006963205 0 9.240842e-07)
(4.814905 0.1436488 0 0.008216009 0 9.310642e-07)
(4.775874 0.1529689 0 0.009623706 0 9.198411e-07)
(4.72015 0.1621869 0 0.0111903 0 8.952469e-07)
(4.648466 0.1711756 0 0.01291728 0 8.608189e-07)
(4.561918 0.1798145 0 0.01480348 0 8.187382e-07)
(4.461849 0.1879915 0 0.01684493 0 7.704243e-07)
(4.34974 0.1956051 0 0.01903483 0 7.173355e-07)
(4.227117 0.2025648 0 0.02136355 0 6.598519e-07)
(4.095486 0.2087914 0 0.02381873 0 5.995305e-07)
(3.956263 0.2142166 0 0.02638527 0 5.375891e-07)
(3.810745 0.2187816 0 0.02904548 0 4.755862e-07)
(3.660075 0.2224365 0 0.03177908 0 4.151995e-07)
(3.505237 0.2251373 0 0.03456314 0 3.579474e-07)
(3.347059 0.2268456 0 0.03737197 0 3.055152e-07)
(3.186212 0.2275253 0 0.04017675 0 2.592305e-07)
(3.023235 0.2271419 0 0.04294504 0 2.204526e-07)
(2.858553 0.2256605 0 0.04564002 0 1.904178e-07)
(2.692491 0.2230441 0 0.04821928 0 1.700139e-07)
(2.525308 0.2192533 0 0.0506336 0 1.599763e-07)
(2.357212 0.2142454 0 0.05282508 0 1.607319e-07)
(2.188385 0.207975 0 0.05472537 0 1.731104e-07)
(2.018989 0.2003945 0 0.05625345 0 1.971793e-07)
(1.849185 0.1914568 0 0.05731397 0 2.33456e-07)
(1.679118 0.1811158 0 0.05779546 0 2.809914e-07)
(1.508931 0.1693317 0 0.05757018 0 3.395395e-07)
(1.338728 0.1560703 0 0.05649362 0 4.079348e-07)
(1.16859 0.1413111 0 0.05440857 0 4.850398e-07)
(0.9984915 0.1250369 0 0.05114361 0 5.646515e-07)
(0.8284707 0.107265 0 0.04653147 0 6.394129e-07)
(0.6583101 0.08798996 0 0.04038868 0 6.717542e-07)
(0.4886946 0.06737143 0 0.03261771 0 6.106002e-07)
(0.3212155 0.04569253 0 0.02320285 0 2.768642e-07)
(0.1703623 0.02521007 0 0.01327969 0 -2.843074e-07)
(0.06516155 0.01029014 0 0.00541329 0 -5.929192e-07)
(0.02189428 0.003997524 0 0.001959882 0 -2.800326e-07)
(0.007350423 0.001700042 0 0.0006493605 0 -9.511559e-08)
(0.003234306 0.001030301 0 0.0003882406 0 -1.264866e-08)
(0.0007263371 0.0004192928 0 -1.232063e-05 0 -1.560999e-08)
(0.0001646957 0.0001572587 0 6.611882e-05 0 -3.195198e-09)
(4.454805 0.04731938 0 2.893817e-06 0 1.662465e-06)
(4.452922 0.04730677 0 2.849179e-06 0 1.540881e-06)
(4.44952 0.04728658 0 2.83755e-06 0 1.357961e-06)
(4.444893 0.04726291 0 2.927242e-06 0 1.154658e-06)
(4.439241 0.04723905 0 3.186438e-06 0 9.570306e-07)
(4.432673 0.04721766 0 3.691445e-06 0 7.775559e-07)
(4.425207 0.04720109 0 4.537472e-06 0 6.171786e-07)
(4.416797 0.04719172 0 5.851818e-06 0 4.680124e-07)
(4.407362 0.04719255 0 7.80866e-06 0 3.165732e-07)
(4.396833 0.04720777 0 1.064405e-05 0 1.473644e-07)
(4.385202 0.04724342 0 1.466934e-05 0 -5.346397e-08)
(4.372585 0.047308 0 2.028128e-05 0 -2.947566e-07)
(4.359276 0.04741302 0 2.796801e-05 0 -5.776908e-07)
(4.345793 0.04757341 0 3.831205e-05 0 -8.94026e-07)
(4.332907 0.04780788 0 5.199469e-05 0 -1.225037e-06)
(4.321654 0.04813942 0 6.981011e-05 0 -1.540269e-06)
(4.313322 0.0485961 0 9.270343e-05 0 -1.794995e-06)
(4.309382 0.0492124 0 0.0001218534 0 -1.927059e-06)
(4.311262 0.05003035 0 0.0001588317 0 -1.863101e-06)
(4.319572 0.0510965 0 0.0002058775 0 -1.577399e-06)
(4.331939 0.05244076 0 0.0002662612 0 -1.330102e-06)
(4.345985 0.05410085 0 0.000346031 0 -1.37419e-06)
(4.363429 0.05613729 0 0.0004474644 0 -1.571795e-06)
(4.388237 0.05863233 0 0.0005746279 0 -1.603639e-06)
(4.421476 0.06164054 0 0.0007324554 0 -1.451427e-06)
(4.462688 0.06520649 0 0.0009269569 0 -1.179788e-06)
(4.510587 0.06937062 0 0.001165351 0 -8.517724e-07)
(4.56333 0.07416785 0 0.001456091 0 -5.103997e-07)
(4.618606 0.07962302 0 0.001808803 0 -1.82774e-07)
(4.673705 0.08574561 0 0.002234134 0 1.13455e-07)
(4.72563 0.0925254 0 0.002743523 0 3.664656e-07)
(4.771281 0.09992965 0 0.003348888 0 5.698492e-07)
(4.807663 0.1079023 0 0.004062251 0 7.225144e-07)
(4.832097 0.1163653 0 0.004895315 0 8.278415e-07)
(4.842396 0.1252209 0 0.005859039 0 8.922858e-07)
(4.836977 0.1343565 0 0.006963205 0 9.240842e-07)
(4.814905 0.1436488 0 0.008216009 0 9.310642e-07)
(4.775874 0.1529689 0 0.009623706 0 9.198411e-07)
(4.72015 0.1621869 0 0.0111903 0 8.952469e-07)
(4.648466 0.1711756 0 0.01291728 0 8.608189e-07)
(4.561918 0.1798145 0 0.01480348 0 8.187382e-07)
(4.461849 0.1879915 0 0.01684493 0 7.704243e-07)
(4.34974 0.1956051 0 0.01903483 0 7.173355e-07)
(4.227117 0.2025648 0 0.02136355 0 6.598519e-07)
(4.095486 0.2087914 0 0.02381873 0 5.995305e-07)
(3.956263 0.2142166 0 0.02638527 0 5.375891e-07)
(3.810745 0.2187816 0 0.02904548 0 4.755862e-07)
(3.660075 0.2224365 0 0.03177908 0 4.151995e-07)
(3.505237 0.2251373 0 0.03456314 0 3.579474e-07)
(3.347059 0.2268456 0 0.03737197 0 3.055152e-07)
(3.186212 0.2275253 0 0.04017675 0 2.592305e-07)
(3.023235 0.2271419 0 0.04294504 0 2.204526e-07)
(2.858553 0.2256605 0 0.04564002 0 1.904178e-07)
(2.692491 0.2230441 0 0.04821928 0 1.700139e-07)
(2.525308 0.2192533 0 0.0506336 0 1.599763e-07)
(2.357212 0.2142454 0 0.05282508 0 1.607319e-07)
(2.188385 0.207975 0 0.05472537 0 1.731104e-07)
(2.018989 0.2003945 0 0.05625345 0 1.971793e-07)
(1.849185 0.1914568 0 0.05731397 0 2.33456e-07)
(1.679118 0.1811158 0 0.05779546 0 2.809914e-07)
(1.508931 0.1693317 0 0.05757018 0 3.395395e-07)
(1.338728 0.1560703 0 0.05649362 0 4.079348e-07)
(1.16859 0.1413111 0 0.05440857 0 4.850398e-07)
(0.9984915 0.1250369 0 0.05114361 0 5.646515e-07)
(0.8284707 0.107265 0 0.04653147 0 6.394129e-07)
(0.6583101 0.08798996 0 0.04038868 0 6.717542e-07)
(0.4886946 0.06737143 0 0.03261771 0 6.106002e-07)
(0.3212155 0.04569253 0 0.02320285 0 2.768642e-07)
(0.1703623 0.02521007 0 0.01327969 0 -2.843074e-07)
(0.06516155 0.01029014 0 0.00541329 0 -5.929192e-07)
(0.02189428 0.003997524 0 0.001959882 0 -2.800326e-07)
(0.007350423 0.001700042 0 0.0006493605 0 -9.511559e-08)
(0.003234306 0.001030301 0 0.0003882406 0 -1.264866e-08)
(0.0007263371 0.0004192928 0 -1.232063e-05 0 -1.560999e-08)
(0.0001646957 0.0001572587 0 6.611882e-05 0 -3.195198e-09)
)
;
    }
    wall
    {
        type            calculated;
        value           nonuniform List<symmTensor> 2((4.454808 0.04731943 0 2.894555e-06 0 1.662505e-06) (4.454802 0.04731933 0 2.893079e-06 0 1.662424e-06));
    }
    frontAndBack
    {
        type            empty;
    }
    middle
    {
        type            symmetryPlane;
        value           nonuniform List<symmTensor> 2((0.0001646969 0 0 6.611986e-05 0 -2.320651e-09) (0.0001646945 0 0 6.611777e-05 0 -4.069745e-09));
    }
}


// ************************************************************************* //
