/*--------------------------------*- C++ -*----------------------------------*\
| =========                 |                                                 |
| \\      /  F ield         | foam-extend: Open Source CFD                    |
|  \\    /   O peration     | Version:     4.0                                |
|   \\  /    A nd           | Web:         http://www.foam-extend.org         |
|    \\/     M anipulation  |                                                 |
\*---------------------------------------------------------------------------*/
FoamFile
{
    version     2.0;
    format      ascii;
    class       volScalarField;
    location    "100";
    object      trC;
}
// * * * * * * * * * * * * * * * * * * * * * * * * * * * * * * * * * * * * * //

dimensions      [0 0 0 0 0 0 0];

internalField   nonuniform List<scalar> 
150
(
1992.365
1992.364
1991.989
1991.988
1991.309
1991.308
1990.384
1990.383
1989.252
1989.251
1987.935
1987.934
1986.435
1986.435
1984.743
1984.742
1982.84
1982.84
1980.711
1980.711
1978.353
1978.353
1975.788
1975.788
1973.074
1973.073
1970.315
1970.315
1967.671
1967.67
1965.356
1965.355
1963.639
1963.639
1962.83
1962.83
1963.227
1963.226
1964.954
1964.953
1967.516
1967.515
1970.418
1970.417
1974.008
1974.007
1979.083
1979.082
1985.831
1985.83
1994.12
1994.119
2003.65
2003.649
2014.019
2014.018
2024.751
2024.751
2035.32
2035.319
2045.171
2045.17
2053.759
2053.758
2060.578
2060.577
2065.188
2065.187
2067.234
2067.233
2066.451
2066.45
2062.661
2062.66
2055.763
2055.762
2045.725
2045.724
2032.563
2032.563
2016.334
2016.334
1997.117
1997.117
1975.007
1975.007
1950.101
1950.101
1922.491
1922.492
1892.259
1892.259
1859.467
1859.468
1824.155
1824.155
1786.335
1786.336
1745.99
1745.991
1703.067
1703.068
1657.478
1657.479
1609.099
1609.1
1557.768
1557.768
1503.284
1503.283
1445.404
1445.404
1383.852
1383.851
1318.3
1318.3
1248.379
1248.379
1173.654
1173.654
1093.623
1093.624
1007.682
1007.683
915.1139
915.1152
815.0068
815.0084
706.325
706.3267
587.6463
587.6478
457.9911
457.992
317.0825
317.0829
177.5829
177.5829
72.15966
72.15961
26.67711
26.67712
10.9753
10.9753
6.615884
6.615869
3.713262
3.713267
3.230607
3.230601
)
;

boundaryField
{
    leftandright
    {
        type            cyclic;
        value           nonuniform List<scalar> 
150
(
1992.364
1991.988
1991.309
1990.383
1989.252
1987.935
1986.435
1984.743
1982.84
1980.711
1978.353
1975.788
1973.074
1970.315
1967.671
1965.356
1963.639
1962.83
1963.227
1964.954
1967.515
1970.417
1974.008
1979.083
1985.831
1994.12
2003.649
2014.018
2024.751
2035.319
2045.171
2053.759
2060.577
2065.188
2067.234
2066.451
2062.66
2055.763
2045.724
2032.563
2016.334
1997.117
1975.007
1950.101
1922.491
1892.259
1859.467
1824.155
1786.336
1745.991
1703.067
1657.478
1609.1
1557.768
1503.283
1445.404
1383.851
1318.3
1248.379
1173.654
1093.623
1007.683
915.1146
815.0076
706.3258
587.6471
457.9916
317.0827
177.5829
72.15964
26.67712
10.9753
6.615877
3.713264
3.230604
1992.364
1991.988
1991.309
1990.383
1989.252
1987.935
1986.435
1984.743
1982.84
1980.711
1978.353
1975.788
1973.074
1970.315
1967.671
1965.356
1963.639
1962.83
1963.227
1964.954
1967.515
1970.417
1974.008
1979.083
1985.831
1994.12
2003.649
2014.018
2024.751
2035.319
2045.171
2053.759
2060.577
2065.188
2067.234
2066.451
2062.66
2055.763
2045.724
2032.563
2016.334
1997.117
1975.007
1950.101
1922.491
1892.259
1859.467
1824.155
1786.336
1745.991
1703.067
1657.478
1609.1
1557.768
1503.283
1445.404
1383.851
1318.3
1248.379
1173.654
1093.623
1007.683
915.1146
815.0076
706.3258
587.6471
457.9916
317.0827
177.5829
72.15964
26.67712
10.9753
6.615877
3.713264
3.230604
)
;
    }
    wall
    {
        type            calculated;
        value           nonuniform List<scalar> 2(1992.365 1992.364);
    }
    frontAndBack
    {
        type            empty;
    }
    middle
    {
        type            symmetryPlane;
        value           nonuniform List<scalar> 2(3.230607 3.230601);
    }
}


// ************************************************************************* //
