/*--------------------------------*- C++ -*----------------------------------*\
| =========                 |                                                 |
| \\      /  F ield         | foam-extend: Open Source CFD                    |
|  \\    /   O peration     | Version:     4.0                                |
|   \\  /    A nd           | Web:         http://www.foam-extend.org         |
|    \\/     M anipulation  |                                                 |
\*---------------------------------------------------------------------------*/
FoamFile
{
    version     2.0;
    format      ascii;
    class       volVectorField;
    location    "100";
    object      U;
}
// * * * * * * * * * * * * * * * * * * * * * * * * * * * * * * * * * * * * * //

dimensions      [0 1 -1 0 0 0 0];

internalField   nonuniform List<vector> 
150
(
(0.1184632 3.0744e-08 0)
(0.1184632 3.019799e-08 0)
(0.3611275 9.08422e-08 0)
(0.3611275 8.956922e-08 0)
(0.6158446 1.508626e-07 0)
(0.6158447 1.493785e-07 0)
(0.8831862 2.234599e-07 0)
(0.8831863 2.219535e-07 0)
(1.163736 3.059799e-07 0)
(1.163737 3.04522e-07 0)
(1.458084 3.957391e-07 0)
(1.458085 3.943485e-07 0)
(1.766815 4.89745e-07 0)
(1.766815 4.884212e-07 0)
(2.090496 5.840979e-07 0)
(2.090497 5.828305e-07 0)
(2.429666 6.737066e-07 0)
(2.429666 6.724835e-07 0)
(2.784816 7.525027e-07 0)
(2.784816 7.513145e-07 0)
(3.156377 8.139204e-07 0)
(3.156377 8.127613e-07 0)
(3.544708 8.515581e-07 0)
(3.544708 8.504253e-07 0)
(3.950086 8.59846e-07 0)
(3.950086 8.587377e-07 0)
(4.372702 8.343971e-07 0)
(4.372702 8.333116e-07 0)
(4.812662 7.720193e-07 0)
(4.812662 7.709542e-07 0)
(5.269994 6.720343e-07 0)
(5.269994 6.709861e-07 0)
(5.744653 5.420214e-07 0)
(5.744653 5.409862e-07 0)
(6.236526 3.923544e-07 0)
(6.236526 3.913285e-07 0)
(6.745436 1.585716e-07 0)
(6.745437 1.575526e-07 0)
(7.271145 -5.825225e-07 0)
(7.271145 -5.835339e-07 0)
(7.8133 -1.474659e-06 0)
(7.8133 -1.475661e-06 0)
(8.369172 -1.662959e-06 0)
(8.369173 -1.663946e-06 0)
(8.93526 -1.739036e-06 0)
(8.93526 -1.740001e-06 0)
(9.509732 -2.152643e-06 0)
(9.509732 -2.153575e-06 0)
(10.0906 -2.577953e-06 0)
(10.0906 -2.578836e-06 0)
(10.67578 -2.930811e-06 0)
(10.67578 -2.931633e-06 0)
(11.26307 -3.183867e-06 0)
(11.26307 -3.18464e-06 0)
(11.85024 -3.316463e-06 0)
(11.85024 -3.317162e-06 0)
(12.43504 -3.311786e-06 0)
(12.43504 -3.312343e-06 0)
(13.01527 -3.164067e-06 0)
(13.01527 -3.164523e-06 0)
(13.58882 -2.880307e-06 0)
(13.58882 -2.880745e-06 0)
(14.15369 -2.478684e-06 0)
(14.15369 -2.47903e-06 0)
(14.70807 -1.985589e-06 0)
(14.70807 -1.985775e-06 0)
(15.25036 -1.431924e-06 0)
(15.25036 -1.432e-06 0)
(15.77919 -8.493114e-07 0)
(15.77919 -8.493315e-07 0)
(16.29345 -2.678397e-07 0)
(16.29345 -2.67635e-07 0)
(16.79226 2.872092e-07 0)
(16.79226 2.875127e-07 0)
(17.275 7.962272e-07 0)
(17.275 7.964964e-07 0)
(17.74129 1.244942e-06 0)
(17.74129 1.245437e-06 0)
(18.19096 1.625568e-06 0)
(18.19096 1.626141e-06 0)
(18.62401 1.935023e-06 0)
(18.62401 1.935588e-06 0)
(19.04063 2.174537e-06 0)
(19.04063 2.175175e-06 0)
(19.44111 2.347061e-06 0)
(19.44111 2.348027e-06 0)
(19.82587 2.460717e-06 0)
(19.82587 2.461333e-06 0)
(20.19539 2.5215e-06 0)
(20.19539 2.522064e-06 0)
(20.5502 2.536308e-06 0)
(20.5502 2.537287e-06 0)
(20.89087 2.515493e-06 0)
(20.89087 2.516004e-06 0)
(21.21795 2.463711e-06 0)
(21.21795 2.464402e-06 0)
(21.53202 2.388835e-06 0)
(21.53202 2.38928e-06 0)
(21.83361 2.295966e-06 0)
(21.83361 2.296428e-06 0)
(22.12323 2.188672e-06 0)
(22.12323 2.189101e-06 0)
(22.40135 2.07262e-06 0)
(22.40135 2.072685e-06 0)
(22.66839 1.947524e-06 0)
(22.66839 1.947645e-06 0)
(22.92475 1.815355e-06 0)
(22.92475 1.815433e-06 0)
(23.17075 1.675766e-06 0)
(23.17075 1.676106e-06 0)
(23.40671 1.527557e-06 0)
(23.40671 1.528037e-06 0)
(23.6329 1.366686e-06 0)
(23.6329 1.367249e-06 0)
(23.84957 1.191557e-06 0)
(23.84957 1.192164e-06 0)
(24.05695 9.908093e-07 0)
(24.05695 9.917657e-07 0)
(24.25527 7.757182e-07 0)
(24.25527 7.771039e-07 0)
(24.44477 5.011562e-07 0)
(24.44477 5.022302e-07 0)
(24.6257 2.685097e-07 0)
(24.6257 2.692866e-07 0)
(24.79831 -1.917605e-07 0)
(24.79831 -1.908376e-07 0)
(24.96288 -2.197166e-07 0)
(24.96288 -2.19188e-07 0)
(25.11969 -1.479998e-06 0)
(25.11969 -1.480013e-06 0)
(25.26903 -5.122082e-08 0)
(25.26903 -5.17402e-08 0)
(25.41116 -8.345798e-06 0)
(25.41116 -8.346659e-06 0)
(25.5462 -5.718422e-06 0)
(25.5462 -5.719285e-06 0)
(25.67368 -5.285103e-05 0)
(25.67368 -5.285156e-05 0)
(25.79156 9.305491e-05 0)
(25.79156 9.305487e-05 0)
(25.89607 -0.0002317111 0)
(25.89607 -0.000231711 0)
(25.98371 0.0007336865 0)
(25.98371 0.0007336866 0)
(26.05236 -0.002006297 0)
(26.05236 -0.002006298 0)
(26.10035 0.005380394 0)
(26.10035 0.005380395 0)
(26.12575 -0.009763238 0)
(26.12575 -0.009763239 0)
)
;

boundaryField
{
    leftandright
    {
        type            cyclic;
        value           nonuniform List<vector> 
150
(
(0.1184632 3.0471e-08 0)
(0.3611275 9.020571e-08 0)
(0.6158446 1.501206e-07 0)
(0.8831863 2.227067e-07 0)
(1.163736 3.052509e-07 0)
(1.458085 3.950438e-07 0)
(1.766815 4.890831e-07 0)
(2.090496 5.834642e-07 0)
(2.429666 6.730951e-07 0)
(2.784816 7.519086e-07 0)
(3.156377 8.133408e-07 0)
(3.544708 8.509917e-07 0)
(3.950086 8.592918e-07 0)
(4.372702 8.338544e-07 0)
(4.812662 7.714867e-07 0)
(5.269994 6.715102e-07 0)
(5.744653 5.415038e-07 0)
(6.236526 3.918415e-07 0)
(6.745437 1.580621e-07 0)
(7.271145 -5.830282e-07 0)
(7.8133 -1.47516e-06 0)
(8.369172 -1.663452e-06 0)
(8.93526 -1.739519e-06 0)
(9.509732 -2.153109e-06 0)
(10.0906 -2.578394e-06 0)
(10.67578 -2.931222e-06 0)
(11.26307 -3.184254e-06 0)
(11.85024 -3.316813e-06 0)
(12.43504 -3.312064e-06 0)
(13.01527 -3.164295e-06 0)
(13.58882 -2.880526e-06 0)
(14.15369 -2.478857e-06 0)
(14.70807 -1.985682e-06 0)
(15.25036 -1.431962e-06 0)
(15.77919 -8.493214e-07 0)
(16.29345 -2.677373e-07 0)
(16.79226 2.873609e-07 0)
(17.275 7.963618e-07 0)
(17.74129 1.24519e-06 0)
(18.19096 1.625855e-06 0)
(18.62401 1.935306e-06 0)
(19.04063 2.174856e-06 0)
(19.44111 2.347544e-06 0)
(19.82587 2.461025e-06 0)
(20.19539 2.521782e-06 0)
(20.5502 2.536798e-06 0)
(20.89087 2.515749e-06 0)
(21.21795 2.464056e-06 0)
(21.53202 2.389058e-06 0)
(21.83361 2.296197e-06 0)
(22.12323 2.188887e-06 0)
(22.40135 2.072652e-06 0)
(22.66839 1.947585e-06 0)
(22.92475 1.815394e-06 0)
(23.17075 1.675936e-06 0)
(23.40671 1.527797e-06 0)
(23.6329 1.366967e-06 0)
(23.84957 1.191861e-06 0)
(24.05695 9.912875e-07 0)
(24.25527 7.76411e-07 0)
(24.44477 5.016932e-07 0)
(24.6257 2.688981e-07 0)
(24.79831 -1.91299e-07 0)
(24.96288 -2.194523e-07 0)
(25.11969 -1.480005e-06 0)
(25.26903 -5.148051e-08 0)
(25.41116 -8.346229e-06 0)
(25.5462 -5.718853e-06 0)
(25.67368 -5.28513e-05 0)
(25.79156 9.305489e-05 0)
(25.89607 -0.000231711 0)
(25.98371 0.0007336865 0)
(26.05236 -0.002006297 0)
(26.10035 0.005380395 0)
(26.12575 -0.009763239 0)
(0.1184632 3.0471e-08 0)
(0.3611275 9.020571e-08 0)
(0.6158446 1.501206e-07 0)
(0.8831863 2.227067e-07 0)
(1.163736 3.052509e-07 0)
(1.458085 3.950438e-07 0)
(1.766815 4.890831e-07 0)
(2.090496 5.834642e-07 0)
(2.429666 6.730951e-07 0)
(2.784816 7.519086e-07 0)
(3.156377 8.133408e-07 0)
(3.544708 8.509917e-07 0)
(3.950086 8.592918e-07 0)
(4.372702 8.338544e-07 0)
(4.812662 7.714867e-07 0)
(5.269994 6.715102e-07 0)
(5.744653 5.415038e-07 0)
(6.236526 3.918415e-07 0)
(6.745437 1.580621e-07 0)
(7.271145 -5.830282e-07 0)
(7.8133 -1.47516e-06 0)
(8.369172 -1.663452e-06 0)
(8.93526 -1.739519e-06 0)
(9.509732 -2.153109e-06 0)
(10.0906 -2.578394e-06 0)
(10.67578 -2.931222e-06 0)
(11.26307 -3.184254e-06 0)
(11.85024 -3.316813e-06 0)
(12.43504 -3.312064e-06 0)
(13.01527 -3.164295e-06 0)
(13.58882 -2.880526e-06 0)
(14.15369 -2.478857e-06 0)
(14.70807 -1.985682e-06 0)
(15.25036 -1.431962e-06 0)
(15.77919 -8.493214e-07 0)
(16.29345 -2.677373e-07 0)
(16.79226 2.873609e-07 0)
(17.275 7.963618e-07 0)
(17.74129 1.24519e-06 0)
(18.19096 1.625855e-06 0)
(18.62401 1.935306e-06 0)
(19.04063 2.174856e-06 0)
(19.44111 2.347544e-06 0)
(19.82587 2.461025e-06 0)
(20.19539 2.521782e-06 0)
(20.5502 2.536798e-06 0)
(20.89087 2.515749e-06 0)
(21.21795 2.464056e-06 0)
(21.53202 2.389058e-06 0)
(21.83361 2.296197e-06 0)
(22.12323 2.188887e-06 0)
(22.40135 2.072652e-06 0)
(22.66839 1.947585e-06 0)
(22.92475 1.815394e-06 0)
(23.17075 1.675936e-06 0)
(23.40671 1.527797e-06 0)
(23.6329 1.366967e-06 0)
(23.84957 1.191861e-06 0)
(24.05695 9.912875e-07 0)
(24.25527 7.76411e-07 0)
(24.44477 5.016932e-07 0)
(24.6257 2.688981e-07 0)
(24.79831 -1.91299e-07 0)
(24.96288 -2.194523e-07 0)
(25.11969 -1.480005e-06 0)
(25.26903 -5.148051e-08 0)
(25.41116 -8.346229e-06 0)
(25.5462 -5.718853e-06 0)
(25.67368 -5.28513e-05 0)
(25.79156 9.305489e-05 0)
(25.89607 -0.000231711 0)
(25.98371 0.0007336865 0)
(26.05236 -0.002006297 0)
(26.10035 0.005380395 0)
(26.12575 -0.009763239 0)
)
;
    }
    wall
    {
        type            fixedValue;
        value           uniform (0 0 0);
    }
    frontAndBack
    {
        type            empty;
    }
    middle
    {
        type            symmetryPlane;
        value           nonuniform List<vector> 2((26.12575 0 0) (26.12575 0 0));
    }
}


// ************************************************************************* //
