/*--------------------------------*- C++ -*----------------------------------*\
| =========                 |                                                 |
| \\      /  F ield         | foam-extend: Open Source CFD                    |
|  \\    /   O peration     | Version:     4.0                                |
|   \\  /    A nd           | Web:         http://www.foam-extend.org         |
|    \\/     M anipulation  |                                                 |
\*---------------------------------------------------------------------------*/
FoamFile
{
    version     2.0;
    format      ascii;
    class       volScalarField;
    location    "100";
    object      v2;
}
// * * * * * * * * * * * * * * * * * * * * * * * * * * * * * * * * * * * * * //

dimensions      [0 2 -2 0 0 0 0];

internalField   nonuniform List<scalar> 
150
(
1.504672e-08
1.504673e-08
7.668786e-07
7.668791e-07
5.010061e-06
5.010064e-06
1.807106e-05
1.807107e-05
4.817212e-05
4.817215e-05
0.0001067192
0.0001067193
0.0002085326
0.0002085328
0.0003720019
0.0003720021
0.000619147
0.0006191474
0.0009755692
0.0009755698
0.001470281
0.001470282
0.002135417
0.002135419
0.00300583
0.003005833
0.004118608
0.004118611
0.005512531
0.005512535
0.007227515
0.007227521
0.009304064
0.009304071
0.01178275
0.01178276
0.01470373
0.01470374
0.01810631
0.01810633
0.02202823
0.02202825
0.02648712
0.02648714
0.03148726
0.03148729
0.03703921
0.03703923
0.04314505
0.04314507
0.04979717
0.0497972
0.0569773
0.05697734
0.06465604
0.06465607
0.0727929
0.07279294
0.08133696
0.08133701
0.090228
0.09022804
0.09939805
0.09939809
0.1087734
0.1087734
0.1182764
0.1182764
0.1278281
0.1278281
0.1373497
0.1373497
0.1467648
0.1467648
0.1560008
0.1560008
0.1649903
0.1649903
0.1736721
0.1736721
0.1819917
0.1819917
0.1899023
0.1899023
0.1973644
0.1973644
0.2043467
0.2043467
0.2108256
0.2108256
0.2167854
0.2167854
0.2222184
0.2222184
0.2271247
0.2271247
0.2315122
0.2315122
0.2353964
0.2353964
0.2388005
0.2388004
0.2417548
0.2417547
0.2442966
0.2442965
0.2464695
0.2464694
0.2483222
0.2483221
0.2499076
0.2499075
0.2512808
0.2512806
0.2524969
0.2524967
0.2536086
0.2536085
0.2546633
0.2546632
0.2556993
0.2556992
0.2567422
0.2567421
0.2578013
0.2578012
0.258865
0.2588648
0.2598954
0.2598952
0.2608228
0.2608227
0.2615373
0.2615371
0.2618779
0.2618777
0.2616187
0.2616185
0.2604682
0.260468
0.2580882
0.2580881
0.2546051
0.2546049
0.2509256
0.2509254
0.2478596
0.2478595
0.2460703
0.2460701
)
;

boundaryField
{
    leftandright
    {
        type            cyclic;
        value           nonuniform List<scalar> 
150
(
1.504672e-08
7.668788e-07
5.010062e-06
1.807106e-05
4.817214e-05
0.0001067193
0.0002085327
0.000372002
0.0006191472
0.0009755695
0.001470282
0.002135418
0.003005832
0.00411861
0.005512533
0.007227518
0.009304068
0.01178275
0.01470373
0.01810632
0.02202824
0.02648713
0.03148728
0.03703922
0.04314506
0.04979718
0.05697732
0.06465606
0.07279292
0.08133698
0.09022802
0.09939807
0.1087734
0.1182764
0.1278281
0.1373497
0.1467648
0.1560008
0.1649903
0.1736721
0.1819917
0.1899023
0.1973644
0.2043467
0.2108256
0.2167854
0.2222184
0.2271247
0.2315122
0.2353964
0.2388005
0.2417548
0.2442966
0.2464695
0.2483222
0.2499076
0.2512807
0.2524968
0.2536086
0.2546633
0.2556992
0.2567422
0.2578013
0.2588649
0.2598953
0.2608228
0.2615372
0.2618778
0.2616186
0.2604681
0.2580882
0.254605
0.2509255
0.2478595
0.2460702
1.504672e-08
7.668788e-07
5.010062e-06
1.807106e-05
4.817214e-05
0.0001067193
0.0002085327
0.000372002
0.0006191472
0.0009755695
0.001470282
0.002135418
0.003005832
0.00411861
0.005512533
0.007227518
0.009304068
0.01178275
0.01470373
0.01810632
0.02202824
0.02648713
0.03148728
0.03703922
0.04314506
0.04979718
0.05697732
0.06465606
0.07279292
0.08133698
0.09022802
0.09939807
0.1087734
0.1182764
0.1278281
0.1373497
0.1467648
0.1560008
0.1649903
0.1736721
0.1819917
0.1899023
0.1973644
0.2043467
0.2108256
0.2167854
0.2222184
0.2271247
0.2315122
0.2353964
0.2388005
0.2417548
0.2442966
0.2464695
0.2483222
0.2499076
0.2512807
0.2524968
0.2536086
0.2546633
0.2556992
0.2567422
0.2578013
0.2588649
0.2598953
0.2608228
0.2615372
0.2618778
0.2616186
0.2604681
0.2580882
0.254605
0.2509255
0.2478595
0.2460702
)
;
    }
    wall
    {
        type            fixedValue;
        value           uniform 1e-10;
    }
    frontAndBack
    {
        type            empty;
    }
    middle
    {
        type            symmetryPlane;
        value           nonuniform List<scalar> 2(0.2460703 0.2460701);
    }
}


// ************************************************************************* //
