/*--------------------------------*- C++ -*----------------------------------*\
| =========                 |                                                 |
| \\      /  F ield         | foam-extend: Open Source CFD                    |
|  \\    /   O peration     | Version:     4.0                                |
|   \\  /    A nd           | Web:         http://www.foam-extend.org         |
|    \\/     M anipulation  |                                                 |
\*---------------------------------------------------------------------------*/
FoamFile
{
    version     2.0;
    format      ascii;
    class       volSymmTensorField;
    location    "100";
    object      C;
}
// * * * * * * * * * * * * * * * * * * * * * * * * * * * * * * * * * * * * * //

dimensions      [0 0 0 0 0 0 0];

internalField   nonuniform List<symmTensor> 
150
(
(629.9899 9.77122 0 0.3020924 0 0.3010028)
(629.9834 9.770786 0 0.302054 0 0.3010073)
(629.8478 9.7761 0 0.3023867 0 0.3011409)
(629.8425 9.775782 0 0.302368 0 0.3011449)
(629.5939 9.788339 0 0.3031106 0 0.3014339)
(629.5903 9.788163 0 0.3031069 0 0.3014371)
(629.1886 9.810478 0 0.3044602 0 0.301908)
(629.1865 9.810404 0 0.3044614 0 0.3019102)
(628.5631 9.845926 0 0.3067308 0 0.3025967)
(628.5622 9.845908 0 0.3067325 0 0.302598)
(627.6702 9.900017 0 0.310345 0 0.3035289)
(627.67 9.900027 0 0.3103468 0 0.3035295)
(626.5254 9.980686 0 0.3158483 0 0.3047188)
(626.5256 9.980712 0 0.3158503 0 0.3047189)
(625.2049 10.09877 0 0.3239257 0 0.3061713)
(625.2053 10.0988 0 0.3239279 0 0.3061711)
(623.7309 10.2673 0 0.3355219 0 0.3079168)
(623.7315 10.26734 0 0.3355241 0 0.3079164)
(621.8275 10.49822 0 0.3521212 0 0.3100458)
(621.8281 10.49825 0 0.3521233 0 0.3100453)
(619.2458 10.80368 0 0.3759025 0 0.3126209)
(619.2464 10.80371 0 0.3759046 0 0.3126205)
(616.2009 11.19672 0 0.4080124 0 0.3155488)
(616.2014 11.19675 0 0.4080144 0 0.3155484)
(613.1385 11.68975 0 0.4498197 0 0.3186137)
(613.139 11.68978 0 0.4498217 0 0.3186134)
(610.2524 12.29023 0 0.5030705 0 0.321628)
(610.2529 12.29026 0 0.5030727 0 0.3216278)
(607.6125 13.00366 0 0.5699482 0 0.3244706)
(607.6129 13.00369 0 0.5699505 0 0.3244704)
(605.2256 13.83457 0 0.6530999 0 0.3270853)
(605.226 13.8346 0 0.6531023 0 0.3270851)
(603.0607 14.78618 0 0.755626 0 0.3294681)
(603.061 14.78621 0 0.7556287 0 0.3294679)
(601.0613 15.85985 0 0.8810459 0 0.3316538)
(601.0616 15.85988 0 0.881049 0 0.3316537)
(599.1534 17.05445 0 1.033241 0 0.3337045)
(599.1538 17.05448 0 1.033244 0 0.3337044)
(597.2538 18.366 0 1.216373 0 0.335698)
(597.2541 18.36603 0 1.216376 0 0.3356979)
(595.2781 19.78762 0 1.434791 0 0.3377182)
(595.2784 19.78765 0 1.434795 0 0.3377181)
(593.1484 21.30967 0 1.692909 0 0.3398458)
(593.1487 21.3097 0 1.692914 0 0.3398457)
(590.798 22.92002 0 1.995082 0 0.342152)
(590.7982 22.92004 0 1.995086 0 0.342152)
(588.1741 24.60454 0 2.345472 0 0.3446943)
(588.1743 24.60456 0 2.345475 0 0.3446943)
(585.2389 26.34757 0 2.747911 0 0.3475146)
(585.239 26.34759 0 2.747916 0 0.3475146)
(581.9678 28.13241 0 3.205779 0 0.3506402)
(581.9679 28.13243 0 3.205784 0 0.3506402)
(578.3481 29.94182 0 3.721883 0 0.3540853)
(578.3482 29.94183 0 3.721887 0 0.3540853)
(574.3765 31.75846 0 4.298355 0 0.3578536)
(574.3766 31.75847 0 4.298358 0 0.3578536)
(570.0564 33.56531 0 4.936577 0 0.3619412)
(570.0565 33.56532 0 4.93658 0 0.3619413)
(565.3961 35.346 0 5.637122 0 0.3663395)
(565.3963 35.34601 0 5.637126 0 0.3663395)
(560.4069 37.08511 0 6.399739 0 0.3710366)
(560.407 37.08512 0 6.399743 0 0.3710367)
(555.1011 38.7684 0 7.223344 0 0.3760202)
(555.1011 38.76841 0 7.223348 0 0.3760203)
(549.4912 40.38301 0 8.106073 0 0.3812783)
(549.4913 40.38302 0 8.106077 0 0.3812783)
(543.5892 41.91757 0 9.045354 0 0.3868004)
(543.5893 41.91758 0 9.045358 0 0.3868004)
(537.4055 43.36226 0 10.03799 0 0.3925782)
(537.4055 43.36227 0 10.03799 0 0.3925783)
(530.9482 44.70862 0 11.08013 0 0.3986068)
(530.9483 44.70862 0 11.08014 0 0.3986068)
(524.2232 45.94945 0 12.16738 0 0.404884)
(524.2233 45.94943 0 12.16737 0 0.404884)
(517.2338 47.0786 0 13.29469 0 0.4114119)
(517.2339 47.07861 0 13.29469 0 0.4114119)
(509.9805 48.09097 0 14.45648 0 0.4181957)
(509.9805 48.09099 0 14.45649 0 0.4181958)
(502.4608 48.98228 0 15.64662 0 0.425245)
(502.4608 48.98229 0 15.64663 0 0.4252451)
(494.6693 49.74893 0 16.85843 0 0.4325731)
(494.6693 49.74893 0 16.85843 0 0.4325731)
(486.5973 50.38789 0 18.08469 0 0.4401976)
(486.5973 50.3879 0 18.0847 0 0.4401976)
(478.2326 50.89659 0 19.3177 0 0.4481406)
(478.2326 50.89659 0 19.3177 0 0.4481406)
(469.5594 51.27267 0 20.54914 0 0.4564288)
(469.5593 51.27267 0 20.54914 0 0.4564288)
(460.5578 51.51395 0 21.77016 0 0.4650942)
(460.5578 51.51396 0 21.77016 0 0.4650942)
(451.2039 51.61817 0 22.97124 0 0.4741742)
(451.2038 51.61818 0 22.97124 0 0.4741742)
(441.4685 51.58287 0 24.14216 0 0.4837124)
(441.4684 51.58287 0 24.14215 0 0.4837124)
(431.3173 51.40519 0 25.27186 0 0.4937594)
(431.3172 51.40519 0 25.27186 0 0.4937593)
(420.71 51.08168 0 26.34835 0 0.5043735)
(420.7099 51.08168 0 26.34835 0 0.5043735)
(409.5991 50.60806 0 27.3584 0 0.5156221)
(409.5991 50.60806 0 27.3584 0 0.5156221)
(397.9295 49.97903 0 28.28739 0 0.5275833)
(397.9294 49.97903 0 28.28739 0 0.5275833)
(385.6364 49.18793 0 29.11896 0 0.540347)
(385.6363 49.18794 0 29.11896 0 0.540347)
(372.6444 48.22649 0 29.83454 0 0.5540181)
(372.6444 48.22648 0 29.83452 0 0.5540179)
(358.8654 47.0844 0 30.4129 0 0.5687182)
(358.8653 47.08439 0 30.41289 0 0.5687182)
(344.1956 45.74887 0 30.8294 0 0.5845905)
(344.1956 45.74887 0 30.82939 0 0.5845905)
(328.5131 44.2041 0 31.05518 0 0.6018029)
(328.5131 44.20409 0 31.05517 0 0.6018029)
(311.6733 42.43061 0 31.05609 0 0.6205543)
(311.6733 42.43062 0 31.05609 0 0.6205543)
(293.505 40.40442 0 30.79126 0 0.6410811)
(293.505 40.40442 0 30.79126 0 0.6410811)
(273.8037 38.09606 0 30.2115 0 0.6636658)
(273.8037 38.09605 0 30.2115 0 0.6636658)
(252.3254 35.46942 0 29.25714 0 0.6886462)
(252.3253 35.46942 0 29.25714 0 0.6886462)
(228.7794 32.48073 0 27.85596 0 0.7164261)
(228.7794 32.48073 0 27.85596 0 0.7164261)
(202.8265 29.07782 0 25.92093 0 0.7474788)
(202.8264 29.07782 0 25.92094 0 0.7474788)
(174.0931 25.20235 0 23.35107 0 0.7823272)
(174.093 25.20234 0 23.35106 0 0.7823272)
(142.2582 20.80195 0 20.04207 0 0.8214239)
(142.2582 20.80195 0 20.04207 0 0.8214239)
(107.4687 15.89207 0 15.95004 0 0.8646)
(107.4686 15.89207 0 15.95003 0 0.8646004)
(71.61173 10.74384 0 11.29402 0 0.9094528)
(71.61144 10.74381 0 11.29399 0 0.9094532)
(40.29257 6.18904 0 6.919328 0 0.9489911)
(40.29216 6.188994 0 6.919285 0 0.9489919)
(20.15257 3.233652 0 3.975916 0 0.9748766)
(20.15235 3.233628 0 3.975893 0 0.9748775)
(10.42208 1.782666 0 2.512229 0 0.9876272)
(10.42205 1.782661 0 2.512225 0 0.9876284)
(5.946755 1.086683 0 1.815693 0 0.9935156)
(5.946753 1.086682 0 1.815692 0 0.9935174)
(3.725231 0.7158542 0 1.466143 0 0.9964247)
(3.725224 0.7158532 0 1.466143 0 0.9964257)
(2.370612 0.4634135 0 1.227662 0 0.9982081)
(2.3706 0.4634118 0 1.227659 0 0.9982056)
(1.763157 0.3167144 0 1.161808 0 0.9989719)
(1.763153 0.3167144 0 1.161807 0 0.998967)
(1.115724 0.1580768 0 0.9831006 0 0.999879)
(1.115728 0.1580774 0 0.9831016 0 0.9998806)
(1.084936 0.0570273 0 1.03691 0 0.9998655)
(1.084932 0.05702704 0 1.036908 0 0.9998637)
)
;

boundaryField
{
    leftandright
    {
        type            cyclic;
        value           nonuniform List<symmTensor> 
150
(
(629.9866 9.771003 0 0.3020732 0 0.301005)
(629.8451 9.775941 0 0.3023773 0 0.3011429)
(629.5921 9.788251 0 0.3031087 0 0.3014355)
(629.1876 9.810441 0 0.3044608 0 0.3019091)
(628.5627 9.845917 0 0.3067316 0 0.3025973)
(627.6701 9.900022 0 0.3103459 0 0.3035292)
(626.5255 9.980699 0 0.3158493 0 0.3047188)
(625.2051 10.09879 0 0.3239268 0 0.3061712)
(623.7312 10.26732 0 0.335523 0 0.3079166)
(621.8278 10.49823 0 0.3521222 0 0.3100455)
(619.2461 10.80369 0 0.3759035 0 0.3126207)
(616.2012 11.19674 0 0.4080134 0 0.3155486)
(613.1388 11.68977 0 0.4498207 0 0.3186136)
(610.2526 12.29025 0 0.5030716 0 0.3216279)
(607.6127 13.00368 0 0.5699494 0 0.3244705)
(605.2258 13.83458 0 0.6531011 0 0.3270852)
(603.0608 14.7862 0 0.7556273 0 0.329468)
(601.0615 15.85987 0 0.8810474 0 0.3316538)
(599.1536 17.05446 0 1.033242 0 0.3337044)
(597.2539 18.36601 0 1.216375 0 0.335698)
(595.2782 19.78764 0 1.434793 0 0.3377181)
(593.1485 21.30968 0 1.692912 0 0.3398458)
(590.7981 22.92003 0 1.995084 0 0.342152)
(588.1742 24.60455 0 2.345474 0 0.3446943)
(585.2389 26.34758 0 2.747913 0 0.3475146)
(581.9678 28.13242 0 3.205781 0 0.3506402)
(578.3482 29.94182 0 3.721885 0 0.3540853)
(574.3765 31.75847 0 4.298356 0 0.3578536)
(570.0565 33.56531 0 4.936578 0 0.3619412)
(565.3962 35.346 0 5.637124 0 0.3663395)
(560.4069 37.08511 0 6.399741 0 0.3710367)
(555.1011 38.76841 0 7.223346 0 0.3760203)
(549.4913 40.38302 0 8.106075 0 0.3812783)
(543.5893 41.91758 0 9.045356 0 0.3868004)
(537.4055 43.36226 0 10.03799 0 0.3925782)
(530.9482 44.70862 0 11.08014 0 0.3986068)
(524.2232 45.94944 0 12.16738 0 0.404884)
(517.2338 47.07861 0 13.29469 0 0.4114119)
(509.9805 48.09098 0 14.45648 0 0.4181958)
(502.4608 48.98228 0 15.64662 0 0.425245)
(494.6693 49.74893 0 16.85843 0 0.4325731)
(486.5973 50.3879 0 18.0847 0 0.4401976)
(478.2326 50.89659 0 19.3177 0 0.4481406)
(469.5593 51.27267 0 20.54914 0 0.4564288)
(460.5578 51.51395 0 21.77016 0 0.4650942)
(451.2038 51.61818 0 22.97124 0 0.4741742)
(441.4684 51.58287 0 24.14215 0 0.4837124)
(431.3172 51.40519 0 25.27186 0 0.4937594)
(420.7099 51.08168 0 26.34835 0 0.5043735)
(409.5991 50.60806 0 27.3584 0 0.5156221)
(397.9294 49.97903 0 28.28739 0 0.5275833)
(385.6363 49.18794 0 29.11896 0 0.540347)
(372.6444 48.22649 0 29.83453 0 0.554018)
(358.8653 47.0844 0 30.41289 0 0.5687182)
(344.1956 45.74887 0 30.8294 0 0.5845905)
(328.5131 44.2041 0 31.05518 0 0.6018029)
(311.6733 42.43062 0 31.05609 0 0.6205543)
(293.505 40.40442 0 30.79126 0 0.6410811)
(273.8037 38.09605 0 30.2115 0 0.6636658)
(252.3254 35.46942 0 29.25714 0 0.6886462)
(228.7794 32.48073 0 27.85596 0 0.7164261)
(202.8264 29.07782 0 25.92094 0 0.7474788)
(174.093 25.20234 0 23.35106 0 0.7823272)
(142.2582 20.80195 0 20.04207 0 0.8214239)
(107.4686 15.89207 0 15.95003 0 0.8646002)
(71.61159 10.74383 0 11.29401 0 0.909453)
(40.29237 6.189017 0 6.919307 0 0.9489915)
(20.15246 3.23364 0 3.975904 0 0.9748771)
(10.42207 1.782664 0 2.512227 0 0.9876278)
(5.946754 1.086683 0 1.815693 0 0.9935165)
(3.725228 0.7158537 0 1.466143 0 0.9964252)
(2.370606 0.4634127 0 1.22766 0 0.9982069)
(1.763155 0.3167144 0 1.161808 0 0.9989695)
(1.115726 0.1580771 0 0.9831011 0 0.9998798)
(1.084934 0.05702717 0 1.036909 0 0.9998646)
(629.9866 9.771003 0 0.3020732 0 0.301005)
(629.8451 9.775941 0 0.3023773 0 0.3011429)
(629.5921 9.788251 0 0.3031087 0 0.3014355)
(629.1876 9.810441 0 0.3044608 0 0.3019091)
(628.5627 9.845917 0 0.3067316 0 0.3025973)
(627.6701 9.900022 0 0.3103459 0 0.3035292)
(626.5255 9.980699 0 0.3158493 0 0.3047188)
(625.2051 10.09879 0 0.3239268 0 0.3061712)
(623.7312 10.26732 0 0.335523 0 0.3079166)
(621.8278 10.49823 0 0.3521222 0 0.3100455)
(619.2461 10.80369 0 0.3759035 0 0.3126207)
(616.2012 11.19674 0 0.4080134 0 0.3155486)
(613.1388 11.68977 0 0.4498207 0 0.3186136)
(610.2526 12.29025 0 0.5030716 0 0.3216279)
(607.6127 13.00368 0 0.5699494 0 0.3244705)
(605.2258 13.83458 0 0.6531011 0 0.3270852)
(603.0608 14.7862 0 0.7556273 0 0.329468)
(601.0615 15.85987 0 0.8810474 0 0.3316538)
(599.1536 17.05446 0 1.033242 0 0.3337044)
(597.2539 18.36601 0 1.216375 0 0.335698)
(595.2782 19.78764 0 1.434793 0 0.3377181)
(593.1485 21.30968 0 1.692912 0 0.3398458)
(590.7981 22.92003 0 1.995084 0 0.342152)
(588.1742 24.60455 0 2.345474 0 0.3446943)
(585.2389 26.34758 0 2.747913 0 0.3475146)
(581.9678 28.13242 0 3.205781 0 0.3506402)
(578.3482 29.94182 0 3.721885 0 0.3540853)
(574.3765 31.75847 0 4.298356 0 0.3578536)
(570.0565 33.56531 0 4.936578 0 0.3619412)
(565.3962 35.346 0 5.637124 0 0.3663395)
(560.4069 37.08511 0 6.399741 0 0.3710367)
(555.1011 38.76841 0 7.223346 0 0.3760203)
(549.4913 40.38302 0 8.106075 0 0.3812783)
(543.5893 41.91758 0 9.045356 0 0.3868004)
(537.4055 43.36226 0 10.03799 0 0.3925782)
(530.9482 44.70862 0 11.08014 0 0.3986068)
(524.2232 45.94944 0 12.16738 0 0.404884)
(517.2338 47.07861 0 13.29469 0 0.4114119)
(509.9805 48.09098 0 14.45648 0 0.4181958)
(502.4608 48.98228 0 15.64662 0 0.425245)
(494.6693 49.74893 0 16.85843 0 0.4325731)
(486.5973 50.3879 0 18.0847 0 0.4401976)
(478.2326 50.89659 0 19.3177 0 0.4481406)
(469.5593 51.27267 0 20.54914 0 0.4564288)
(460.5578 51.51395 0 21.77016 0 0.4650942)
(451.2038 51.61818 0 22.97124 0 0.4741742)
(441.4684 51.58287 0 24.14215 0 0.4837124)
(431.3172 51.40519 0 25.27186 0 0.4937594)
(420.7099 51.08168 0 26.34835 0 0.5043735)
(409.5991 50.60806 0 27.3584 0 0.5156221)
(397.9294 49.97903 0 28.28739 0 0.5275833)
(385.6363 49.18794 0 29.11896 0 0.540347)
(372.6444 48.22649 0 29.83453 0 0.554018)
(358.8653 47.0844 0 30.41289 0 0.5687182)
(344.1956 45.74887 0 30.8294 0 0.5845905)
(328.5131 44.2041 0 31.05518 0 0.6018029)
(311.6733 42.43062 0 31.05609 0 0.6205543)
(293.505 40.40442 0 30.79126 0 0.6410811)
(273.8037 38.09605 0 30.2115 0 0.6636658)
(252.3254 35.46942 0 29.25714 0 0.6886462)
(228.7794 32.48073 0 27.85596 0 0.7164261)
(202.8264 29.07782 0 25.92094 0 0.7474788)
(174.093 25.20234 0 23.35106 0 0.7823272)
(142.2582 20.80195 0 20.04207 0 0.8214239)
(107.4686 15.89207 0 15.95003 0 0.8646002)
(71.61159 10.74383 0 11.29401 0 0.909453)
(40.29237 6.189017 0 6.919307 0 0.9489915)
(20.15246 3.23364 0 3.975904 0 0.9748771)
(10.42207 1.782664 0 2.512227 0 0.9876278)
(5.946754 1.086683 0 1.815693 0 0.9935165)
(3.725228 0.7158537 0 1.466143 0 0.9964252)
(2.370606 0.4634127 0 1.22766 0 0.9982069)
(1.763155 0.3167144 0 1.161808 0 0.9989695)
(1.115726 0.1580771 0 0.9831011 0 0.9998798)
(1.084934 0.05702717 0 1.036909 0 0.9998646)
)
;
    }
    wall
    {
        type            zeroGradient;
    }
    frontAndBack
    {
        type            empty;
    }
    middle
    {
        type            symmetryPlane;
        value           nonuniform List<symmTensor> 2((1.084936 0 0 1.03691 0 0.9998655) (1.084932 0 0 1.036908 0 0.9998637));
    }
}


// ************************************************************************* //
