/*--------------------------------*- C++ -*----------------------------------*\
| =========                 |                                                 |
| \\      /  F ield         | foam-extend: Open Source CFD                    |
|  \\    /   O peration     | Version:     4.0                                |
|   \\  /    A nd           | Web:         http://www.foam-extend.org         |
|    \\/     M anipulation  |                                                 |
\*---------------------------------------------------------------------------*/
FoamFile
{
    version     2.0;
    format      ascii;
    class       volScalarField;
    location    "100";
    object      Ceps1;
}
// * * * * * * * * * * * * * * * * * * * * * * * * * * * * * * * * * * * * * //

dimensions      [0 0 0 0 0 0 0];

internalField   nonuniform List<scalar> 
150
(
6.52777
6.52777
3.804062
3.804062
2.993312
2.993311
2.614393
2.614393
2.397353
2.397353
2.257783
2.257783
2.160914
2.160914
2.089805
2.089805
2.03523
2.03523
1.991819
1.991819
1.956352
1.956351
1.926115
1.926115
1.899383
1.899383
1.875141
1.875141
1.852788
1.852788
1.831966
1.831966
1.812456
1.812456
1.79412
1.79412
1.776868
1.776868
1.76063
1.76063
1.745354
1.745354
1.730992
1.730992
1.7175
1.7175
1.704834
1.704834
1.692951
1.692951
1.681809
1.681809
1.671366
1.671366
1.661579
1.661579
1.652409
1.652409
1.643814
1.643814
1.635757
1.635757
1.6282
1.6282
1.621109
1.621109
1.614448
1.614448
1.608185
1.608185
1.60229
1.60229
1.596734
1.596734
1.591491
1.591491
1.586536
1.586536
1.58185
1.58185
1.57741
1.57741
1.5732
1.5732
1.569201
1.569201
1.565399
1.565399
1.561779
1.561779
1.558328
1.558328
1.555034
1.555034
1.551885
1.551885
1.548872
1.548872
1.545983
1.545983
1.54321
1.54321
1.540545
1.540545
1.537979
1.537979
1.535505
1.535505
1.533116
1.533116
1.530807
1.530807
1.528571
1.528571
1.526404
1.526404
1.524303
1.524303
1.522265
1.522265
1.520289
1.520289
1.518376
1.518376
1.516532
1.516532
1.514765
1.514765
1.513091
1.513091
1.511538
1.511538
1.51015
1.51015
1.508906
1.508906
1.507783
1.507783
1.506773
1.506773
1.505877
1.505877
1.505107
1.505107
1.504483
1.504483
1.504032
1.504032
1.503789
1.503789
)
;

boundaryField
{
    leftandright
    {
        type            cyclic;
        value           nonuniform List<scalar> 
150
(
6.52777
3.804062
2.993311
2.614393
2.397353
2.257783
2.160914
2.089805
2.03523
1.991819
1.956351
1.926115
1.899383
1.875141
1.852788
1.831966
1.812456
1.79412
1.776868
1.76063
1.745354
1.730992
1.7175
1.704834
1.692951
1.681809
1.671366
1.661579
1.652409
1.643814
1.635757
1.6282
1.621109
1.614448
1.608185
1.60229
1.596734
1.591491
1.586536
1.58185
1.57741
1.5732
1.569201
1.565399
1.561779
1.558328
1.555034
1.551885
1.548872
1.545983
1.54321
1.540545
1.537979
1.535505
1.533116
1.530807
1.528571
1.526404
1.524303
1.522265
1.520289
1.518376
1.516532
1.514765
1.513091
1.511538
1.51015
1.508906
1.507783
1.506773
1.505877
1.505107
1.504483
1.504032
1.503789
6.52777
3.804062
2.993311
2.614393
2.397353
2.257783
2.160914
2.089805
2.03523
1.991819
1.956351
1.926115
1.899383
1.875141
1.852788
1.831966
1.812456
1.79412
1.776868
1.76063
1.745354
1.730992
1.7175
1.704834
1.692951
1.681809
1.671366
1.661579
1.652409
1.643814
1.635757
1.6282
1.621109
1.614448
1.608185
1.60229
1.596734
1.591491
1.586536
1.58185
1.57741
1.5732
1.569201
1.565399
1.561779
1.558328
1.555034
1.551885
1.548872
1.545983
1.54321
1.540545
1.537979
1.535505
1.533116
1.530807
1.528571
1.526404
1.524303
1.522265
1.520289
1.518376
1.516532
1.514765
1.513091
1.511538
1.51015
1.508906
1.507783
1.506773
1.505877
1.505107
1.504483
1.504032
1.503789
)
;
    }
    wall
    {
        type            calculated;
        value           uniform 1.463;
    }
    frontAndBack
    {
        type            empty;
    }
    middle
    {
        type            symmetryPlane;
        value           nonuniform List<scalar> 2(1.503789 1.503789);
    }
}


// ************************************************************************* //
