/*--------------------------------*- C++ -*----------------------------------*\
| =========                 |                                                 |
| \\      /  F ield         | foam-extend: Open Source CFD                    |
|  \\    /   O peration     | Version:     4.0                                |
|   \\  /    A nd           | Web:         http://www.foam-extend.org         |
|    \\/     M anipulation  |                                                 |
\*---------------------------------------------------------------------------*/
FoamFile
{
    version     2.0;
    format      ascii;
    class       volSymmTensorField;
    location    "100";
    object      DiffC;
}
// * * * * * * * * * * * * * * * * * * * * * * * * * * * * * * * * * * * * * //

dimensions      [0 0 -1 0 0 0 0];

internalField   nonuniform List<symmTensor> 
150
(
(-8.934773 0.3067943 0 0.01850012 0 0.008683564)
(-8.861859 0.3141479 0 0.01974526 0 0.008650679)
(-5.950206 0.4046017 0 0.02359161 0 0.008415679)
(-5.920539 0.4057901 0 0.02327028 0 0.008396763)
(-7.129756 0.4776869 0 0.03032238 0 0.008557702)
(-7.140325 0.4752792 0 0.02976442 0 0.008553032)
(-9.29867 0.5677314 0 0.03972587 0 0.008871763)
(-9.322667 0.5653707 0 0.03950596 0 0.008877268)
(-9.937459 0.7102175 0 0.05179842 0 0.008792881)
(-9.95752 0.7089453 0 0.05177971 0 0.008802549)
(-7.877901 0.9095695 0 0.06509773 0 0.008019791)
(-7.89068 0.9089817 0 0.06510229 0 0.008029431)
(-4.051655 1.150802 0 0.07925864 0 0.006977203)
(-4.0591 1.150514 0 0.07925689 0 0.00698491)
(-2.686749 1.389656 0 0.09718317 0 0.006844489)
(-2.691045 1.389494 0 0.09717839 0 0.006849834)
(-10.03189 1.522796 0 0.1249019 0 0.008332912)
(-10.03431 1.522707 0 0.1248985 0 0.008336169)
(-14.8902 1.60823 0 0.1623477 0 0.008648736)
(-14.8914 1.608196 0 0.1623486 0 0.008650438)
(-7.68606 1.669696 0 0.1650267 0 0.005127023)
(-7.686601 1.669681 0 0.1650259 0 0.005127751)
(2.902198 1.677882 0 0.1691703 0 -0.0002617144)
(2.902076 1.677889 0 0.1691722 0 -0.0002615105)
(6.324283 1.563118 0 0.1768847 0 -0.003941217)
(6.324295 1.563126 0 0.1768865 0 -0.003941253)
(6.774024 1.4152 0 0.1876 0 -0.005604617)
(6.774008 1.415194 0 0.1875988 0 -0.005604773)
(6.039094 1.261255 0 0.2001681 0 -0.005810432)
(6.039108 1.26125 0 0.2001667 0 -0.005810603)
(4.848988 1.102665 0 0.2131446 0 -0.005151761)
(4.849097 1.102679 0 0.2131481 0 -0.005151818)
(3.522931 0.9364889 0 0.2251821 0 -0.004066714)
(3.522881 0.9364828 0 0.2251816 0 -0.004066663)
(2.236292 0.7624921 0 0.2351119 0 -0.002849595)
(2.236181 0.7624793 0 0.2351105 0 -0.002849589)
(1.104853 0.5840867 0 0.2419977 0 -0.001692397)
(1.104746 0.5840698 0 0.2419951 0 -0.001692446)
(0.1995641 0.407081 0 0.2452071 0 -0.0007117708)
(0.1995592 0.4070775 0 0.2452067 0 -0.0007118246)
(-0.4541319 0.2376098 0 0.2442874 0 3.592414e-05)
(-0.4540892 0.2376221 0 0.2442941 0 3.591156e-05)
(-0.8669542 0.08144172 0 0.2391279 0 0.0005414064)
(-0.8672288 0.08138632 0 0.2391129 0 0.0005415304)
(-1.074909 -0.05708397 0 0.2298262 0 0.0008284966)
(-1.07468 -0.05704834 0 0.2298326 0 0.0008284601)
(-1.125487 -0.175168 0 0.2167117 0 0.0009403191)
(-1.12552 -0.1751719 0 0.2167162 0 0.0009400885)
(-1.067412 -0.27164 0 0.2002756 0 0.0009255823)
(-1.067425 -0.27166 0 0.2002691 0 0.0009255614)
(-0.9430456 -0.346627 0 0.1811344 0 0.0008305317)
(-0.9430629 -0.3466349 0 0.1811288 0 0.0008305825)
(-0.7858583 -0.4012485 0 0.1599723 0 0.00069256)
(-0.785807 -0.40124 0 0.1599718 0 0.0006925482)
(-0.6195709 -0.4372675 0 0.1375345 0 0.0005400543)
(-0.6196938 -0.437284 0 0.1375378 0 0.0005401026)
(-0.4604065 -0.4569963 0 0.1145271 0 0.0003918902)
(-0.4601414 -0.4569541 0 0.1145306 0 0.0003917488)
(-0.3168779 -0.4627358 0 0.09165878 0 0.0002586888)
(-0.31706 -0.4627518 0 0.09165482 0 0.0002588381)
(-0.1942709 -0.457093 0 0.06952218 0 0.000146258)
(-0.1943531 -0.4571074 0 0.06952133 0 0.0001463635)
(-0.09384411 -0.4423618 0 0.04868038 0 5.66313e-05)
(-0.09368403 -0.4423578 0 0.04867942 0 5.625414e-05)
(-0.0139967 -0.4207021 0 0.0295852 0 -1.241884e-05)
(-0.01412734 -0.4206999 0 0.02958498 0 -1.222715e-05)
(0.0465931 -0.3942062 0 0.01251114 0 -6.1949e-05)
(0.04654285 -0.3942265 0 0.01250567 0 -6.196273e-05)
(0.090155 -0.3650018 0 -0.002585481 0 -9.460585e-05)
(0.09023348 -0.3649813 0 -0.002581338 0 -9.473536e-05)
(0.1197403 -0.3345331 0 -0.01567316 0 -0.000114069)
(0.1196279 -0.3345804 0 -0.01569226 0 -0.0001138853)
(0.137698 -0.30408 0 -0.02694143 0 -0.0001219235)
(0.1377635 -0.3040033 0 -0.02690511 0 -0.0001220538)
(0.1466794 -0.2743098 0 -0.03637409 0 -0.0001220797)
(0.1467215 -0.2743193 0 -0.03637536 0 -0.0001219895)
(0.1485553 -0.2458521 0 -0.04415022 0 -0.0001156896)
(0.1484752 -0.2458854 0 -0.04416677 0 -0.0001158212)
(0.1449291 -0.2191939 0 -0.05042898 0 -0.0001050148)
(0.1449058 -0.2191966 0 -0.05044309 0 -0.0001049298)
(0.1371541 -0.1944987 0 -0.05533926 0 -9.104147e-05)
(0.1372664 -0.1944794 0 -0.0553166 0 -9.11028e-05)
(0.1264856 -0.1718734 0 -0.05901222 0 -7.510056e-05)
(0.126418 -0.171895 0 -0.05903483 0 -7.506409e-05)
(0.1137003 -0.1514532 0 -0.06167512 0 -5.808279e-05)
(0.1136917 -0.1514521 0 -0.06166566 0 -5.808149e-05)
(0.09939358 -0.1331129 0 -0.06340236 0 -4.013462e-05)
(0.0993963 -0.1331002 0 -0.06340214 0 -4.017181e-05)
(0.08419365 -0.1168595 0 -0.06441644 0 -2.21856e-05)
(0.08418704 -0.1168654 0 -0.06441641 0 -2.207582e-05)
(0.06845225 -0.1025507 0 -0.06481765 0 -4.159796e-06)
(0.06848309 -0.1025585 0 -0.06481771 0 -4.222359e-06)
(0.0524061 -0.0900876 0 -0.06476114 0 1.369008e-05)
(0.05246368 -0.09008493 0 -0.06476083 0 1.358898e-05)
(0.03640653 -0.07931026 0 -0.06435973 0 3.097805e-05)
(0.03637142 -0.07930742 0 -0.0643593 0 3.117632e-05)
(0.02024365 -0.07012508 0 -0.06376462 0 4.836045e-05)
(0.02033442 -0.07012835 0 -0.06376436 0 4.825475e-05)
(0.004342042 -0.06234423 0 -0.06304736 0 6.534606e-05)
(0.00428183 -0.06234051 0 -0.0630467 0 6.537708e-05)
(-0.01161717 -0.0558702 0 -0.062323 0 8.223323e-05)
(-0.01158267 -0.05586924 0 -0.0623184 0 8.22214e-05)
(-0.02745171 -0.05057018 0 -0.06169117 0 9.922995e-05)
(-0.02742024 -0.05057536 0 -0.0617039 0 9.91717e-05)
(-0.04335465 -0.04633234 0 -0.06123272 0 0.0001163689)
(-0.04336762 -0.04632791 0 -0.06122346 0 0.0001165012)
(-0.05944165 -0.0430702 0 -0.06104399 0 0.0001341908)
(-0.059438 -0.04306918 0 -0.06104202 0 0.0001341464)
(-0.07590467 -0.04069401 0 -0.06119368 0 0.0001526258)
(-0.07590161 -0.04069313 0 -0.06119178 0 0.0001526266)
(-0.0929025 -0.0391217 0 -0.0617617 0 0.0001722298)
(-0.09289655 -0.03911837 0 -0.06175729 0 0.0001722293)
(-0.1106244 -0.03831902 0 -0.06284666 0 0.0001931649)
(-0.1106315 -0.03832437 0 -0.06284893 0 0.0001931671)
(-0.129339 -0.03822458 0 -0.06450356 0 0.0002158699)
(-0.1293374 -0.03822437 0 -0.06450341 0 0.0002158694)
(-0.1491672 -0.03879863 0 -0.06682313 0 0.000240477)
(-0.1491721 -0.03879395 0 -0.06682294 0 0.000240479)
(-0.1700384 -0.03993801 0 -0.06978753 0 0.0002669443)
(-0.1700159 -0.03993963 0 -0.06978747 0 0.0002669513)
(-0.1909916 -0.04149039 0 -0.07335042 0 0.000294061)
(-0.1909785 -0.0414901 0 -0.07334876 0 0.0002940202)
(-0.2088284 -0.04289428 0 -0.07697711 0 0.0003172055)
(-0.2088172 -0.04289648 0 -0.07698292 0 0.0003172175)
(-0.2122783 -0.04248912 0 -0.07901364 0 0.0003207361)
(-0.2122598 -0.04248465 0 -0.07900795 0 0.0003207348)
(-0.156217 -0.03348461 0 -0.07223564 0 0.0002448628)
(-0.1562051 -0.03348598 0 -0.072238 0 0.0002449027)
(0.07570163 0.00134266 0 -0.03779037 0 -5.643925e-05)
(0.07569448 0.001340128 0 -0.03778988 0 -5.652373e-05)
(0.614065 0.08256722 0 0.05005642 0 -0.0007332561)
(0.614121 0.08257303 0 0.0500616 0 -0.0007332773)
(1.115 0.159855 0 0.1443824 0 -0.001367428)
(1.115092 0.1598657 0 0.1443926 0 -0.001367612)
(0.9033062 0.1307286 0 0.1287319 0 -0.001141683)
(0.9033416 0.1307323 0 0.1287353 0 -0.001141786)
(0.4111636 0.05926523 0 0.06017973 0 -0.0005369535)
(0.4111573 0.05926462 0 0.06017927 0 -0.0005371407)
(0.1606048 0.0233367 0 0.02475091 0 -0.0002120787)
(0.1606026 0.02333652 0 0.02475081 0 -0.0002124511)
(0.0574095 0.008041941 0 0.007549781 0 -7.453393e-05)
(0.05741085 0.008042108 0 0.007549621 0 -7.485655e-05)
(0.04326716 0.006287835 0 0.009794783 0 -5.908011e-05)
(0.04326963 0.006288238 0 0.009795489 0 -5.858688e-05)
(-0.0004285972 -0.0002129909 0 -0.005252112 0 4.610337e-06)
(-0.0004280588 -0.0002130479 0 -0.00525202 0 5.818556e-06)
(0.02821018 0.002852424 0 0.01049196 0 -4.185993e-05)
(0.02820907 0.002852264 0 0.01049161 0 -4.254976e-05)
(0.001271472 -0.0004226643 0 -0.002222816 0 4.217238e-07)
(0.001272319 -0.0004225661 0 -0.002222396 0 8.34995e-07)
)
;

boundaryField
{
    leftandright
    {
        type            cyclic;
        value           nonuniform List<symmTensor> 
150
(
(-8.898316 0.3104711 0 0.01912269 0 0.008667122)
(-5.935373 0.4051959 0 0.02343095 0 0.008406221)
(-7.135041 0.476483 0 0.0300434 0 0.008555367)
(-9.310669 0.566551 0 0.03961591 0 0.008874515)
(-9.94749 0.7095814 0 0.05178907 0 0.008797715)
(-7.88429 0.9092756 0 0.06510001 0 0.008024611)
(-4.055377 1.150658 0 0.07925777 0 0.006981057)
(-2.688897 1.389575 0 0.09718078 0 0.006847162)
(-10.0331 1.522751 0 0.1249002 0 0.00833454)
(-14.8908 1.608213 0 0.1623481 0 0.008649587)
(-7.686331 1.669688 0 0.1650263 0 0.005127387)
(2.902137 1.677886 0 0.1691712 0 -0.0002616125)
(6.324289 1.563122 0 0.1768856 0 -0.003941235)
(6.774016 1.415197 0 0.1875994 0 -0.005604695)
(6.039101 1.261253 0 0.2001674 0 -0.005810517)
(4.849042 1.102672 0 0.2131464 0 -0.005151789)
(3.522906 0.9364859 0 0.2251819 0 -0.004066688)
(2.236237 0.7624857 0 0.2351112 0 -0.002849592)
(1.104799 0.5840782 0 0.2419964 0 -0.001692422)
(0.1995616 0.4070793 0 0.2452069 0 -0.0007117977)
(-0.4541105 0.2376159 0 0.2442908 0 3.591785e-05)
(-0.8670915 0.08141402 0 0.2391204 0 0.0005414684)
(-1.074794 -0.05706615 0 0.2298294 0 0.0008284784)
(-1.125503 -0.17517 0 0.2167139 0 0.0009402038)
(-1.067419 -0.27165 0 0.2002724 0 0.0009255718)
(-0.9430543 -0.346631 0 0.1811316 0 0.0008305571)
(-0.7858327 -0.4012442 0 0.1599721 0 0.0006925541)
(-0.6196324 -0.4372757 0 0.1375362 0 0.0005400784)
(-0.4602739 -0.4569752 0 0.1145288 0 0.0003918195)
(-0.316969 -0.4627438 0 0.0916568 0 0.0002587634)
(-0.194312 -0.4571002 0 0.06952176 0 0.0001463107)
(-0.09376407 -0.4423598 0 0.0486799 0 5.644272e-05)
(-0.01406202 -0.420701 0 0.02958509 0 -1.232299e-05)
(0.04656798 -0.3942163 0 0.0125084 0 -6.195586e-05)
(0.09019424 -0.3649916 0 -0.00258341 0 -9.467061e-05)
(0.1196841 -0.3345568 0 -0.01568271 0 -0.0001139771)
(0.1377308 -0.3040417 0 -0.02692327 0 -0.0001219887)
(0.1467004 -0.2743145 0 -0.03637473 0 -0.0001220346)
(0.1485153 -0.2458688 0 -0.04415849 0 -0.0001157554)
(0.1449174 -0.2191953 0 -0.05043604 0 -0.0001049723)
(0.1372103 -0.1944891 0 -0.05532793 0 -9.107213e-05)
(0.1264518 -0.1718842 0 -0.05902353 0 -7.508232e-05)
(0.113696 -0.1514527 0 -0.06167039 0 -5.808214e-05)
(0.09939494 -0.1331066 0 -0.06340225 0 -4.015321e-05)
(0.08419035 -0.1168625 0 -0.06441643 0 -2.213071e-05)
(0.06846767 -0.1025546 0 -0.06481768 0 -4.191077e-06)
(0.05243489 -0.09008626 0 -0.06476099 0 1.363953e-05)
(0.03638897 -0.07930884 0 -0.06435952 0 3.107719e-05)
(0.02028904 -0.07012671 0 -0.06376449 0 4.83076e-05)
(0.004311936 -0.06234237 0 -0.06304703 0 6.536157e-05)
(-0.01159992 -0.05586972 0 -0.0623207 0 8.222732e-05)
(-0.02743598 -0.05057277 0 -0.06169754 0 9.920082e-05)
(-0.04336113 -0.04633013 0 -0.06122809 0 0.000116435)
(-0.05943983 -0.04306969 0 -0.06104301 0 0.0001341686)
(-0.07590314 -0.04069357 0 -0.06119273 0 0.0001526262)
(-0.09289953 -0.03912003 0 -0.0617595 0 0.0001722295)
(-0.1106279 -0.03832169 0 -0.0628478 0 0.000193166)
(-0.1293382 -0.03822448 0 -0.06450348 0 0.0002158696)
(-0.1491697 -0.03879629 0 -0.06682303 0 0.000240478)
(-0.1700272 -0.03993882 0 -0.0697875 0 0.0002669478)
(-0.1909851 -0.04149025 0 -0.07334959 0 0.0002940406)
(-0.2088228 -0.04289538 0 -0.07698002 0 0.0003172115)
(-0.2122691 -0.04248689 0 -0.0790108 0 0.0003207355)
(-0.156211 -0.03348529 0 -0.07223682 0 0.0002448828)
(0.07569806 0.001341394 0 -0.03779013 0 -5.648149e-05)
(0.614093 0.08257012 0 0.05005901 0 -0.0007332667)
(1.115046 0.1598604 0 0.1443875 0 -0.00136752)
(0.9033239 0.1307304 0 0.1287336 0 -0.001141735)
(0.4111604 0.05926493 0 0.0601795 0 -0.0005370471)
(0.1606037 0.02333661 0 0.02475086 0 -0.0002122649)
(0.05741018 0.008042025 0 0.007549701 0 -7.469524e-05)
(0.0432684 0.006288037 0 0.009795136 0 -5.883349e-05)
(-0.000428328 -0.0002130194 0 -0.005252066 0 5.214446e-06)
(0.02820962 0.002852344 0 0.01049179 0 -4.220485e-05)
(0.001271896 -0.0004226152 0 -0.002222606 0 6.283594e-07)
(-8.898316 0.3104711 0 0.01912269 0 0.008667122)
(-5.935373 0.4051959 0 0.02343095 0 0.008406221)
(-7.135041 0.476483 0 0.0300434 0 0.008555367)
(-9.310669 0.566551 0 0.03961591 0 0.008874515)
(-9.94749 0.7095814 0 0.05178907 0 0.008797715)
(-7.88429 0.9092756 0 0.06510001 0 0.008024611)
(-4.055377 1.150658 0 0.07925777 0 0.006981057)
(-2.688897 1.389575 0 0.09718078 0 0.006847162)
(-10.0331 1.522751 0 0.1249002 0 0.00833454)
(-14.8908 1.608213 0 0.1623481 0 0.008649587)
(-7.686331 1.669688 0 0.1650263 0 0.005127387)
(2.902137 1.677886 0 0.1691712 0 -0.0002616125)
(6.324289 1.563122 0 0.1768856 0 -0.003941235)
(6.774016 1.415197 0 0.1875994 0 -0.005604695)
(6.039101 1.261253 0 0.2001674 0 -0.005810517)
(4.849042 1.102672 0 0.2131464 0 -0.005151789)
(3.522906 0.9364859 0 0.2251819 0 -0.004066688)
(2.236237 0.7624857 0 0.2351112 0 -0.002849592)
(1.104799 0.5840782 0 0.2419964 0 -0.001692422)
(0.1995616 0.4070793 0 0.2452069 0 -0.0007117977)
(-0.4541105 0.2376159 0 0.2442908 0 3.591785e-05)
(-0.8670915 0.08141402 0 0.2391204 0 0.0005414684)
(-1.074794 -0.05706615 0 0.2298294 0 0.0008284784)
(-1.125503 -0.17517 0 0.2167139 0 0.0009402038)
(-1.067419 -0.27165 0 0.2002724 0 0.0009255718)
(-0.9430543 -0.346631 0 0.1811316 0 0.0008305571)
(-0.7858327 -0.4012442 0 0.1599721 0 0.0006925541)
(-0.6196324 -0.4372757 0 0.1375362 0 0.0005400784)
(-0.4602739 -0.4569752 0 0.1145288 0 0.0003918195)
(-0.316969 -0.4627438 0 0.0916568 0 0.0002587634)
(-0.194312 -0.4571002 0 0.06952176 0 0.0001463107)
(-0.09376407 -0.4423598 0 0.0486799 0 5.644272e-05)
(-0.01406202 -0.420701 0 0.02958509 0 -1.232299e-05)
(0.04656798 -0.3942163 0 0.0125084 0 -6.195586e-05)
(0.09019424 -0.3649916 0 -0.00258341 0 -9.467061e-05)
(0.1196841 -0.3345568 0 -0.01568271 0 -0.0001139771)
(0.1377308 -0.3040417 0 -0.02692327 0 -0.0001219887)
(0.1467004 -0.2743145 0 -0.03637473 0 -0.0001220346)
(0.1485153 -0.2458688 0 -0.04415849 0 -0.0001157554)
(0.1449174 -0.2191953 0 -0.05043604 0 -0.0001049723)
(0.1372103 -0.1944891 0 -0.05532793 0 -9.107213e-05)
(0.1264518 -0.1718842 0 -0.05902353 0 -7.508232e-05)
(0.113696 -0.1514527 0 -0.06167039 0 -5.808214e-05)
(0.09939494 -0.1331066 0 -0.06340225 0 -4.015321e-05)
(0.08419035 -0.1168625 0 -0.06441643 0 -2.213071e-05)
(0.06846767 -0.1025546 0 -0.06481768 0 -4.191077e-06)
(0.05243489 -0.09008626 0 -0.06476099 0 1.363953e-05)
(0.03638897 -0.07930884 0 -0.06435952 0 3.107719e-05)
(0.02028904 -0.07012671 0 -0.06376449 0 4.83076e-05)
(0.004311936 -0.06234237 0 -0.06304703 0 6.536157e-05)
(-0.01159992 -0.05586972 0 -0.0623207 0 8.222732e-05)
(-0.02743598 -0.05057277 0 -0.06169754 0 9.920082e-05)
(-0.04336113 -0.04633013 0 -0.06122809 0 0.000116435)
(-0.05943983 -0.04306969 0 -0.06104301 0 0.0001341686)
(-0.07590314 -0.04069357 0 -0.06119273 0 0.0001526262)
(-0.09289953 -0.03912003 0 -0.0617595 0 0.0001722295)
(-0.1106279 -0.03832169 0 -0.0628478 0 0.000193166)
(-0.1293382 -0.03822448 0 -0.06450348 0 0.0002158696)
(-0.1491697 -0.03879629 0 -0.06682303 0 0.000240478)
(-0.1700272 -0.03993882 0 -0.0697875 0 0.0002669478)
(-0.1909851 -0.04149025 0 -0.07334959 0 0.0002940406)
(-0.2088228 -0.04289538 0 -0.07698002 0 0.0003172115)
(-0.2122691 -0.04248689 0 -0.0790108 0 0.0003207355)
(-0.156211 -0.03348529 0 -0.07223682 0 0.0002448828)
(0.07569806 0.001341394 0 -0.03779013 0 -5.648149e-05)
(0.614093 0.08257012 0 0.05005901 0 -0.0007332667)
(1.115046 0.1598604 0 0.1443875 0 -0.00136752)
(0.9033239 0.1307304 0 0.1287336 0 -0.001141735)
(0.4111604 0.05926493 0 0.0601795 0 -0.0005370471)
(0.1606037 0.02333661 0 0.02475086 0 -0.0002122649)
(0.05741018 0.008042025 0 0.007549701 0 -7.469524e-05)
(0.0432684 0.006288037 0 0.009795136 0 -5.883349e-05)
(-0.000428328 -0.0002130194 0 -0.005252066 0 5.214446e-06)
(0.02820962 0.002852344 0 0.01049179 0 -4.220485e-05)
(0.001271896 -0.0004226152 0 -0.002222606 0 6.283594e-07)
)
;
    }
    wall
    {
        type            calculated;
        value           nonuniform List<symmTensor> 2((-8.934773 0.3067943 0 0.01850012 0 0.008683564) (-8.861859 0.3141479 0 0.01974526 0 0.008650679));
    }
    frontAndBack
    {
        type            empty;
    }
    middle
    {
        type            symmetryPlane;
        value           nonuniform List<symmTensor> 2((0.001271472 0 0 -0.002222816 0 4.217238e-07) (0.001272319 0 0 -0.002222396 0 8.34995e-07));
    }
}


// ************************************************************************* //
