/*--------------------------------*- C++ -*----------------------------------*\
| =========                 |                                                 |
| \\      /  F ield         | foam-extend: Open Source CFD                    |
|  \\    /   O peration     | Version:     4.0                                |
|   \\  /    A nd           | Web:         http://www.foam-extend.org         |
|    \\/     M anipulation  |                                                 |
\*---------------------------------------------------------------------------*/
FoamFile
{
    version     2.0;
    format      ascii;
    class       volScalarField;
    location    "100";
    object      epsilonPlus;
}
// * * * * * * * * * * * * * * * * * * * * * * * * * * * * * * * * * * * * * //

dimensions      [0 4 -4 0 0 0 0];

internalField   nonuniform List<scalar> 
150
(
0.1562619
0.1562619
0.1374747
0.1374747
0.1226892
0.1226893
0.1117254
0.1117254
0.1044608
0.1044608
0.1007864
0.1007864
0.1005603
0.1005603
0.1035757
0.1035757
0.1095568
0.1095568
0.1181825
0.1181825
0.1289266
0.1289266
0.1404094
0.1404094
0.1515157
0.1515157
0.1613585
0.1613585
0.1692987
0.1692987
0.1749467
0.1749467
0.1781429
0.1781429
0.1789208
0.1789208
0.1774603
0.1774603
0.1740396
0.1740396
0.1689895
0.1689895
0.1626572
0.1626573
0.1553783
0.1553783
0.1474582
0.1474582
0.1391626
0.1391626
0.1307127
0.1307127
0.1222862
0.1222862
0.1140201
0.1140201
0.1060161
0.1060161
0.09834564
0.09834564
0.09105534
0.09105534
0.08417232
0.08417232
0.07770844
0.07770844
0.07166414
0.07166414
0.06603155
0.06603156
0.06079703
0.06079703
0.05594305
0.05594305
0.05144975
0.05144975
0.04729598
0.04729598
0.04346017
0.04346017
0.0399209
0.0399209
0.0366573
0.0366573
0.03364931
0.03364931
0.03087792
0.03087792
0.02832518
0.02832518
0.0259743
0.0259743
0.02380966
0.02380966
0.02181674
0.02181674
0.01998213
0.01998213
0.01829344
0.01829344
0.01673926
0.01673926
0.01530907
0.01530907
0.01399321
0.01399321
0.01278277
0.01278277
0.01166956
0.01166956
0.01064601
0.01064601
0.009705143
0.009705143
0.008840475
0.008840475
0.00804599
0.008045989
0.007316066
0.007316065
0.006645425
0.006645425
0.006029088
0.006029088
0.005462325
0.005462325
0.004940636
0.004940636
0.004459762
0.004459762
0.00401582
0.00401582
0.003605728
0.003605728
0.003228321
0.003228321
0.002885058
0.002885058
0.002579171
0.002579171
0.002314428
0.002314428
0.002094518
0.002094518
0.001922928
0.001922928
0.001803318
0.001803318
0.001740164
0.001740164
)
;

boundaryField
{
    leftandright
    {
        type            cyclic;
        value           nonuniform List<scalar> 
150
(
0.1562619
0.1374747
0.1226892
0.1117254
0.1044608
0.1007864
0.1005603
0.1035757
0.1095568
0.1181825
0.1289266
0.1404094
0.1515157
0.1613585
0.1692987
0.1749467
0.1781429
0.1789208
0.1774603
0.1740396
0.1689895
0.1626572
0.1553783
0.1474582
0.1391626
0.1307127
0.1222862
0.1140201
0.1060161
0.09834564
0.09105534
0.08417232
0.07770844
0.07166414
0.06603155
0.06079703
0.05594305
0.05144975
0.04729598
0.04346017
0.0399209
0.0366573
0.03364931
0.03087792
0.02832518
0.0259743
0.02380966
0.02181674
0.01998213
0.01829344
0.01673926
0.01530907
0.01399321
0.01278277
0.01166956
0.01064601
0.009705143
0.008840475
0.00804599
0.007316066
0.006645425
0.006029088
0.005462325
0.004940636
0.004459762
0.00401582
0.003605728
0.003228321
0.002885058
0.002579171
0.002314428
0.002094518
0.001922928
0.001803318
0.001740164
0.1562619
0.1374747
0.1226892
0.1117254
0.1044608
0.1007864
0.1005603
0.1035757
0.1095568
0.1181825
0.1289266
0.1404094
0.1515157
0.1613585
0.1692987
0.1749467
0.1781429
0.1789208
0.1774603
0.1740396
0.1689895
0.1626572
0.1553783
0.1474582
0.1391626
0.1307127
0.1222862
0.1140201
0.1060161
0.09834564
0.09105534
0.08417232
0.07770844
0.07166414
0.06603155
0.06079703
0.05594305
0.05144975
0.04729598
0.04346017
0.0399209
0.0366573
0.03364931
0.03087792
0.02832518
0.0259743
0.02380966
0.02181674
0.01998213
0.01829344
0.01673926
0.01530907
0.01399321
0.01278277
0.01166956
0.01064601
0.009705143
0.008840475
0.00804599
0.007316066
0.006645425
0.006029088
0.005462325
0.004940636
0.004459762
0.00401582
0.003605728
0.003228321
0.002885058
0.002579171
0.002314428
0.002094518
0.001922928
0.001803318
0.001740164
)
;
    }
    wall
    {
        type            calculated;
        value           nonuniform List<scalar> 2(0.1680787 0.1680788);
    }
    frontAndBack
    {
        type            empty;
    }
    middle
    {
        type            symmetryPlane;
        value           nonuniform List<scalar> 2(0.001740164 0.001740164);
    }
}


// ************************************************************************* //
