/*--------------------------------*- C++ -*----------------------------------*\
| =========                 |                                                 |
| \\      /  F ield         | foam-extend: Open Source CFD                    |
|  \\    /   O peration     | Version:     4.0                                |
|   \\  /    A nd           | Web:         http://www.foam-extend.org         |
|    \\/     M anipulation  |                                                 |
\*---------------------------------------------------------------------------*/
FoamFile
{
    version     2.0;
    format      ascii;
    class       volScalarField;
    location    "100";
    object      epsilonV;
}
// * * * * * * * * * * * * * * * * * * * * * * * * * * * * * * * * * * * * * //

dimensions      [0 2 -3 0 0 0 0];

internalField   nonuniform List<scalar> 
150
(
2.750969e-06
2.750784e-06
0.0001422932
0.0001422859
0.0009056229
0.0009055949
0.003109291
0.003109244
0.00772998
0.00772994
0.0156336
0.01563361
0.0273054
0.02730549
0.0427545
0.04275471
0.06161192
0.06161226
0.08513654
0.08513702
0.1242462
0.1242469
0.1695513
0.1695522
0.221147
0.221148
0.2791716
0.2791728
0.3438967
0.3438981
0.4156222
0.4156238
0.4945786
0.4945804
0.5808317
0.5808336
0.6741993
0.6742014
0.7741947
0.7741969
0.8800068
0.880009
0.9905176
0.9905199
1.104355
1.104357
1.219968
1.21997
1.335712
1.335714
1.449933
1.449935
1.561044
1.561045
1.667577
1.667578
1.768231
1.768232
1.861892
1.861893
1.947644
1.947646
2.024769
2.02477
2.092733
2.092734
2.151177
2.151178
2.199899
2.1999
2.238814
2.238815
2.267937
2.267936
2.287353
2.287354
2.297213
2.297214
2.29771
2.297711
2.289073
2.289073
2.271553
2.271554
2.245428
2.245428
2.210984
2.210984
2.168522
2.168522
2.118352
2.118352
2.06079
2.06079
1.996163
1.996163
1.924807
1.924807
1.847065
1.847064
1.763295
1.763295
1.67387
1.67387
1.579184
1.579184
1.479652
1.479652
1.375721
1.375721
1.267872
1.267871
1.15663
1.15663
1.042575
1.042575
0.9263549
0.9263546
0.8086995
0.8086993
0.690454
0.6904538
0.5726187
0.5726187
0.4564481
0.4564478
0.3436803
0.3436802
0.237414
0.2374139
0.143949
0.1439486
0.0739899
0.07398931
0.03443515
0.03443488
0.01678768
0.01678763
0.008859678
0.008859673
0.004933931
0.004933923
0.002471506
0.002471497
0.001451677
0.001451677
0.0001391895
0.0001391907
0.0001926687
0.0001926682
)
;

boundaryField
{
    leftandright
    {
        type            cyclic;
        value           nonuniform List<scalar> 
150
(
2.750877e-06
0.0001422895
0.0009056089
0.003109267
0.00772996
0.0156336
0.02730545
0.04275461
0.06161209
0.08513678
0.1242465
0.1695518
0.2211475
0.2791722
0.3438974
0.415623
0.4945795
0.5808327
0.6742004
0.7741958
0.8800079
0.9905187
1.104356
1.219969
1.335713
1.449934
1.561045
1.667578
1.768232
1.861892
1.947645
2.02477
2.092733
2.151178
2.199899
2.238815
2.267936
2.287354
2.297214
2.297711
2.289073
2.271554
2.245428
2.210984
2.168522
2.118352
2.06079
1.996163
1.924807
1.847065
1.763295
1.67387
1.579184
1.479652
1.375721
1.267872
1.15663
1.042575
0.9263547
0.8086994
0.6904539
0.5726187
0.4564479
0.3436803
0.237414
0.1439488
0.07398961
0.03443502
0.01678766
0.008859675
0.004933927
0.002471501
0.001451677
0.0001391901
0.0001926684
2.750877e-06
0.0001422895
0.0009056089
0.003109267
0.00772996
0.0156336
0.02730545
0.04275461
0.06161209
0.08513678
0.1242465
0.1695518
0.2211475
0.2791722
0.3438974
0.415623
0.4945795
0.5808327
0.6742004
0.7741958
0.8800079
0.9905187
1.104356
1.219969
1.335713
1.449934
1.561045
1.667578
1.768232
1.861892
1.947645
2.02477
2.092733
2.151178
2.199899
2.238815
2.267936
2.287354
2.297214
2.297711
2.289073
2.271554
2.245428
2.210984
2.168522
2.118352
2.06079
1.996163
1.924807
1.847065
1.763295
1.67387
1.579184
1.479652
1.375721
1.267872
1.15663
1.042575
0.9263547
0.8086994
0.6904539
0.5726187
0.4564479
0.3436803
0.237414
0.1439488
0.07398961
0.03443502
0.01678766
0.008859675
0.004933927
0.002471501
0.001451677
0.0001391901
0.0001926684
)
;
    }
    wall
    {
        type            calculated;
        value           nonuniform List<scalar> 2(5.136187e-10 5.135842e-10);
    }
    frontAndBack
    {
        type            empty;
    }
    middle
    {
        type            symmetryPlane;
        value           nonuniform List<scalar> 2(0.0001926687 0.0001926682);
    }
}


// ************************************************************************* //
