/*--------------------------------*- C++ -*----------------------------------*\
| =========                 |                                                 |
| \\      /  F ield         | foam-extend: Open Source CFD                    |
|  \\    /   O peration     | Version:     4.0                                |
|   \\  /    A nd           | Web:         http://www.foam-extend.org         |
|    \\/     M anipulation  |                                                 |
\*---------------------------------------------------------------------------*/
FoamFile
{
    version     2.0;
    format      ascii;
    class       volScalarField;
    location    "100";
    object      epsilon;
}
// * * * * * * * * * * * * * * * * * * * * * * * * * * * * * * * * * * * * * //

dimensions      [0 2 -3 0 0 0 0];

internalField   nonuniform List<scalar> 
150
(
61.72344
61.72344
54.3025
54.3025
48.46225
48.46225
44.13153
44.13153
41.26202
41.26202
39.81064
39.81065
39.72132
39.72132
40.91239
40.91239
43.27493
43.27494
46.68209
46.6821
50.92601
50.92602
55.4617
55.4617
59.84871
59.84871
63.73661
63.73662
66.87299
66.87299
69.10396
69.10396
70.36646
70.36646
70.6737
70.67371
70.09683
70.09683
68.74563
68.74563
66.75086
66.75086
64.24961
64.24962
61.37442
61.37442
58.246
58.246
54.96923
54.96923
51.63153
51.63153
48.30304
48.30305
45.03795
45.03796
41.87638
41.87638
38.84653
38.84653
35.96686
35.96686
33.24807
33.24807
30.69483
30.69484
28.30734
28.30734
26.08246
26.08246
24.01483
24.01483
22.09751
22.09751
20.32265
20.32265
18.68191
18.68191
17.16677
17.16677
15.76876
15.76876
14.47963
14.47963
13.29148
13.29148
12.19678
12.19678
11.18844
11.18844
10.25985
10.25985
9.404815
9.404815
8.617613
8.617613
7.892942
7.892942
7.22591
7.22591
6.612008
6.612008
6.047084
6.047084
5.527319
5.527319
5.049196
5.049196
4.609477
4.609477
4.205176
4.205176
3.833531
3.833531
3.491988
3.491987
3.178166
3.178166
2.889846
2.889846
2.624943
2.624943
2.38149
2.38149
2.157618
2.157618
1.951551
1.951551
1.761606
1.761606
1.586249
1.586249
1.424262
1.424262
1.275187
1.275187
1.139598
1.139598
1.018773
1.018773
0.9141992
0.9141992
0.8273345
0.8273345
0.7595567
0.7595567
0.7123105
0.7123105
0.6873648
0.6873648
)
;

boundaryField
{
    leftandright
    {
        type            cyclic;
        value           nonuniform List<scalar> 
150
(
61.72344
54.3025
48.46225
44.13153
41.26202
39.81064
39.72132
40.91239
43.27493
46.6821
50.92601
55.4617
59.84871
63.73661
66.87299
69.10396
70.36646
70.67371
70.09683
68.74563
66.75086
64.24961
61.37442
58.246
54.96923
51.63153
48.30304
45.03795
41.87638
38.84653
35.96686
33.24807
30.69484
28.30734
26.08246
24.01483
22.09751
20.32265
18.68191
17.16677
15.76876
14.47963
13.29148
12.19678
11.18844
10.25985
9.404815
8.617613
7.892942
7.22591
6.612008
6.047084
5.527319
5.049196
4.609477
4.205176
3.833531
3.491988
3.178166
2.889846
2.624943
2.38149
2.157618
1.951551
1.761606
1.586249
1.424262
1.275187
1.139598
1.018773
0.9141992
0.8273345
0.7595567
0.7123105
0.6873648
61.72344
54.3025
48.46225
44.13153
41.26202
39.81064
39.72132
40.91239
43.27493
46.6821
50.92601
55.4617
59.84871
63.73661
66.87299
69.10396
70.36646
70.67371
70.09683
68.74563
66.75086
64.24961
61.37442
58.246
54.96923
51.63153
48.30304
45.03795
41.87638
38.84653
35.96686
33.24807
30.69484
28.30734
26.08246
24.01483
22.09751
20.32265
18.68191
17.16677
15.76876
14.47963
13.29148
12.19678
11.18844
10.25985
9.404815
8.617613
7.892942
7.22591
6.612008
6.047084
5.527319
5.049196
4.609477
4.205176
3.833531
3.491988
3.178166
2.889846
2.624943
2.38149
2.157618
1.951551
1.761606
1.586249
1.424262
1.275187
1.139598
1.018773
0.9141992
0.8273345
0.7595567
0.7123105
0.6873648
)
;
    }
    wall
    {
        type            groovyBC;
        refValue        nonuniform List<scalar> 2(66.3911 66.39111);
        refGradient     uniform 0;
        valueFraction   uniform 1;
        value           nonuniform List<scalar> 2(66.3911 66.39111);
        valueExpression "2*nu*internalField(k)/sqr(mag(delta()))";
        gradientExpression "0";
        fractionExpression "1";
        evaluateDuringConstruction 0;
        variables       "";
        timelines       (
);
        lookuptables    (
);
    }
    frontAndBack
    {
        type            empty;
    }
    middle
    {
        type            symmetryPlane;
        value           nonuniform List<scalar> 2(0.6873648 0.6873648);
    }
}


// ************************************************************************* //
