/*--------------------------------*- C++ -*----------------------------------*\
| =========                 |                                                 |
| \\      /  F ield         | foam-extend: Open Source CFD                    |
|  \\    /   O peration     | Version:     4.0                                |
|   \\  /    A nd           | Web:         http://www.foam-extend.org         |
|    \\/     M anipulation  |                                                 |
\*---------------------------------------------------------------------------*/
FoamFile
{
    version     2.0;
    format      ascii;
    class       volScalarField;
    location    "100";
    object      EtauP;
}
// * * * * * * * * * * * * * * * * * * * * * * * * * * * * * * * * * * * * * //

dimensions      [0 2 -4 0 0 0 0];

internalField   nonuniform List<scalar> 
150
(
0.0004673294
0.0004672981
0.01321262
0.01321195
0.06250987
0.06250794
0.1788769
0.1788742
0.3943058
0.3943038
0.7377144
0.7377146
1.231815
1.231819
1.893052
1.893061
2.732398
2.732413
3.738465
3.738486
4.865512
4.865538
6.081417
6.081447
7.382581
7.382615
8.754377
8.754415
10.18036
10.1804
11.64227
11.64231
13.11973
13.11978
14.58982
14.58986
16.02695
16.027
17.40351
17.40356
18.69119
18.69123
19.86272
19.86277
20.89381
20.89385
21.76475
21.76478
22.46151
22.46155
22.97629
22.97632
23.30735
23.30737
23.45845
23.45847
23.43801
23.43802
23.25804
23.25806
22.9331
22.93312
22.47933
22.47934
21.91355
21.91356
21.2527
21.25272
20.51324
20.51325
19.71064
19.71064
18.85915
18.85915
17.97166
17.97167
17.05968
17.05969
16.13333
16.13334
15.20145
15.20145
14.27165
14.27165
13.35044
13.35045
12.44335
12.44335
11.55501
11.55501
10.68926
10.68926
9.849266
9.849263
9.037595
9.037593
8.256303
8.256301
7.506989
7.506987
6.790883
6.790881
6.108887
6.108886
5.461632
5.46163
4.849516
4.849515
4.272744
4.272743
3.731359
3.731358
3.225276
3.225277
2.754311
2.75431
2.318205
2.318204
1.916665
1.916665
1.549412
1.549412
1.216248
1.216248
0.9172152
0.9172146
0.6529558
0.6529556
0.4260991
0.426099
0.2437734
0.2437726
0.1180555
0.1180545
0.05168151
0.05168111
0.02366756
0.02366751
0.01172843
0.01172842
0.006141324
0.006141314
0.002904107
0.002904096
0.001622523
0.001622523
0.0001497592
0.0001497604
0.0002029275
0.0002029269
)
;

boundaryField
{
    leftandright
    {
        type            cyclic;
        value           nonuniform List<scalar> 
150
(
0.0004673138
0.01321228
0.0625089
0.1788755
0.3943048
0.7377145
1.231817
1.893057
2.732406
3.738476
4.865525
6.081432
7.382598
8.754396
10.18038
11.64229
13.11975
14.58984
16.02697
17.40353
18.69121
19.86274
20.89383
21.76476
22.46153
22.97631
23.30736
23.45846
23.43802
23.25805
22.93311
22.47933
21.91356
21.25271
20.51324
19.71064
18.85915
17.97166
17.05968
16.13333
15.20145
14.27165
13.35045
12.44335
11.55501
10.68926
9.849264
9.037594
8.256302
7.506988
6.790882
6.108887
5.461631
4.849516
4.272744
3.731358
3.225276
2.754311
2.318205
1.916665
1.549412
1.216248
0.9172149
0.6529557
0.426099
0.243773
0.118055
0.05168131
0.02366753
0.01172843
0.006141319
0.002904101
0.001622523
0.0001497598
0.0002029272
0.0004673138
0.01321228
0.0625089
0.1788755
0.3943048
0.7377145
1.231817
1.893057
2.732406
3.738476
4.865525
6.081432
7.382598
8.754396
10.18038
11.64229
13.11975
14.58984
16.02697
17.40353
18.69121
19.86274
20.89383
21.76476
22.46153
22.97631
23.30736
23.45846
23.43802
23.25805
22.93311
22.47933
21.91356
21.25271
20.51324
19.71064
18.85915
17.97166
17.05968
16.13333
15.20145
14.27165
13.35045
12.44335
11.55501
10.68926
9.849264
9.037594
8.256302
7.506988
6.790882
6.108887
5.461631
4.849516
4.272744
3.731358
3.225276
2.754311
2.318205
1.916665
1.549412
1.216248
0.9172149
0.6529557
0.426099
0.243773
0.118055
0.05168131
0.02366753
0.01172843
0.006141319
0.002904101
0.001622523
0.0001497598
0.0002029272
)
;
    }
    wall
    {
        type            calculated;
        value           nonuniform List<scalar> 2(2.028092e-08 2.027956e-08);
    }
    frontAndBack
    {
        type            empty;
    }
    middle
    {
        type            symmetryPlane;
        value           nonuniform List<scalar> 2(0.0002029275 0.0002029269);
    }
}


// ************************************************************************* //
