/*--------------------------------*- C++ -*----------------------------------*\
| =========                 |                                                 |
| \\      /  F ield         | foam-extend: Open Source CFD                    |
|  \\    /   O peration     | Version:     4.0                                |
|   \\  /    A nd           | Web:         http://www.foam-extend.org         |
|    \\/     M anipulation  |                                                 |
\*---------------------------------------------------------------------------*/
FoamFile
{
    version     2.0;
    format      ascii;
    class       volScalarField;
    location    "100";
    object      eVyy;
}
// * * * * * * * * * * * * * * * * * * * * * * * * * * * * * * * * * * * * * //

dimensions      [0 2 -3 0 0 0 0];

internalField   nonuniform List<scalar> 
150
(
2.699125e-10
2.698944e-10
6.351659e-08
6.351334e-08
9.203233e-07
9.20295e-07
5.43923e-06
5.439149e-06
2.004817e-05
2.004806e-05
5.481495e-05
5.481497e-05
0.0001216666
0.0001216671
0.0002318053
0.0002318065
0.0003939097
0.0003939119
0.0006270934
0.000627097
0.001035569
0.001035575
0.001580281
0.001580289
0.002287744
0.002287755
0.00319022
0.003190234
0.004327455
0.004327473
0.005746384
0.005746405
0.007500237
0.007500264
0.009646876
0.00964691
0.0122463
0.01224634
0.0153575
0.01535754
0.01903492
0.01903497
0.02332498
0.02332504
0.02826287
0.02826293
0.03387012
0.03387018
0.04015289
0.04015296
0.04710119
0.04710125
0.05468886
0.05468892
0.06287436
0.06287442
0.07160204
0.07160209
0.08080386
0.08080393
0.09040148
0.09040156
0.1003084
0.1003085
0.1104322
0.1104323
0.1206775
0.1206776
0.1309474
0.1309475
0.1411444
0.1411445
0.1511707
0.1511707
0.1609286
0.1609286
0.170321
0.1703211
0.1792522
0.1792523
0.1876277
0.1876277
0.1953547
0.1953548
0.2023429
0.2023429
0.2085042
0.2085042
0.2137538
0.2137538
0.2180098
0.2180098
0.2211941
0.2211941
0.2232328
0.2232327
0.2240563
0.2240563
0.2236
0.2236
0.2218051
0.221805
0.2186186
0.2186185
0.2139947
0.2139946
0.2078955
0.2078955
0.2002921
0.2002921
0.1911659
0.1911658
0.1805111
0.1805111
0.1683367
0.1683367
0.154671
0.1546709
0.1395658
0.1395658
0.123106
0.123106
0.1054217
0.1054217
0.08671496
0.08671491
0.06731754
0.06731752
0.04788958
0.04788956
0.02985105
0.02985095
0.01573261
0.01573248
0.007490251
0.007490192
0.003728063
0.003728054
0.002004886
0.002004884
0.001135495
0.001135493
0.0005771598
0.0005771576
0.0003430652
0.0003430651
3.3179e-05
3.317928e-05
4.614275e-05
4.614263e-05
)
;

boundaryField
{
    leftandright
    {
        type            cyclic;
        value           nonuniform List<scalar> 
150
(
2.699035e-10
6.351496e-08
9.203092e-07
5.439189e-06
2.004811e-05
5.481496e-05
0.0001216669
0.0002318059
0.0003939108
0.0006270952
0.001035572
0.001580285
0.00228775
0.003190227
0.004327464
0.005746394
0.00750025
0.009646893
0.01224632
0.01535752
0.01903495
0.02332501
0.0282629
0.03387015
0.04015293
0.04710122
0.05468889
0.06287439
0.07160207
0.08080389
0.09040152
0.1003084
0.1104323
0.1206775
0.1309474
0.1411445
0.1511707
0.1609286
0.1703211
0.1792523
0.1876277
0.1953547
0.2023429
0.2085042
0.2137538
0.2180098
0.2211941
0.2232327
0.2240563
0.2236
0.2218051
0.2186186
0.2139947
0.2078955
0.2002921
0.1911659
0.1805111
0.1683367
0.154671
0.1395658
0.123106
0.1054217
0.08671494
0.06731753
0.04788957
0.029851
0.01573255
0.007490221
0.003728059
0.002004885
0.001135494
0.0005771587
0.0003430651
3.317914e-05
4.614269e-05
2.699035e-10
6.351496e-08
9.203092e-07
5.439189e-06
2.004811e-05
5.481496e-05
0.0001216669
0.0002318059
0.0003939108
0.0006270952
0.001035572
0.001580285
0.00228775
0.003190227
0.004327464
0.005746394
0.00750025
0.009646893
0.01224632
0.01535752
0.01903495
0.02332501
0.0282629
0.03387015
0.04015293
0.04710122
0.05468889
0.06287439
0.07160207
0.08080389
0.09040152
0.1003084
0.1104323
0.1206775
0.1309474
0.1411445
0.1511707
0.1609286
0.1703211
0.1792523
0.1876277
0.1953547
0.2023429
0.2085042
0.2137538
0.2180098
0.2211941
0.2232327
0.2240563
0.2236
0.2218051
0.2186186
0.2139947
0.2078955
0.2002921
0.1911659
0.1805111
0.1683367
0.154671
0.1395658
0.123106
0.1054217
0.08671494
0.06731753
0.04788957
0.029851
0.01573255
0.007490221
0.003728059
0.002004885
0.001135494
0.0005771587
0.0003430651
3.317914e-05
4.614269e-05
)
;
    }
    wall
    {
        type            calculated;
        value           nonuniform List<scalar> 2(3.338521e-10 3.338297e-10);
    }
    frontAndBack
    {
        type            empty;
    }
    middle
    {
        type            symmetryPlane;
        value           nonuniform List<scalar> 2(4.614275e-05 4.614263e-05);
    }
}


// ************************************************************************* //
