/*--------------------------------*- C++ -*----------------------------------*\
| =========                 |                                                 |
| \\      /  F ield         | foam-extend: Open Source CFD                    |
|  \\    /   O peration     | Version:     4.0                                |
|   \\  /    A nd           | Web:         http://www.foam-extend.org         |
|    \\/     M anipulation  |                                                 |
\*---------------------------------------------------------------------------*/
FoamFile
{
    version     2.0;
    format      ascii;
    class       volScalarField;
    location    "100";
    object      f;
}
// * * * * * * * * * * * * * * * * * * * * * * * * * * * * * * * * * * * * * //

dimensions      [0 0 -1 0 0 0 0];

internalField   nonuniform List<scalar> 
150
(
0.05059141
0.05059141
0.1517429
0.1517429
0.2555248
0.2555248
0.36209
0.36209
0.4715308
0.4715308
0.5838617
0.5838616
0.6989946
0.6989946
0.81671
0.81671
0.9366213
0.9366212
1.058134
1.058134
1.18054
1.18054
1.303571
1.303571
1.426816
1.426816
1.54977
1.54977
1.671875
1.671875
1.79255
1.79255
1.911211
1.911211
2.027296
2.027296
2.140271
2.140271
2.249644
2.249644
2.354966
2.354966
2.455836
2.455836
2.551901
2.551901
2.642853
2.642853
2.728426
2.728426
2.808395
2.808395
2.882569
2.882569
2.950792
2.950792
3.012935
3.012935
3.068896
3.068896
3.118596
3.118596
3.161977
3.161977
3.198999
3.198999
3.229729
3.229729
3.254473
3.254473
3.273517
3.273517
3.28713
3.28713
3.295568
3.295568
3.299072
3.299072
3.297873
3.297873
3.292194
3.292194
3.282248
3.282248
3.268243
3.268243
3.25038
3.25038
3.228856
3.228856
3.203864
3.203864
3.175593
3.175593
3.144229
3.144229
3.109957
3.109957
3.072958
3.072958
3.033411
3.033411
2.991496
2.991496
2.947388
2.947388
2.901261
2.901261
2.85329
2.85329
2.803646
2.803646
2.752499
2.752499
2.700019
2.700019
2.646377
2.646377
2.591745
2.591745
2.5363
2.5363
2.480226
2.480226
2.423726
2.423726
2.367027
2.367027
2.310399
2.310399
2.254184
2.254184
2.198831
2.198831
2.144966
2.144966
2.093412
2.093412
2.045174
2.045174
2.001411
2.001411
1.963407
1.963407
1.932552
1.932552
1.910332
1.910332
1.898347
1.898347
)
;

boundaryField
{
    leftandright
    {
        type            cyclic;
        value           nonuniform List<scalar> 
150
(
0.05059141
0.1517429
0.2555248
0.36209
0.4715308
0.5838616
0.6989946
0.81671
0.9366213
1.058134
1.18054
1.303571
1.426816
1.54977
1.671875
1.79255
1.911211
2.027296
2.140271
2.249644
2.354966
2.455836
2.551901
2.642853
2.728426
2.808395
2.882569
2.950792
3.012935
3.068896
3.118596
3.161977
3.198999
3.229729
3.254473
3.273517
3.28713
3.295568
3.299072
3.297873
3.292194
3.282248
3.268243
3.25038
3.228856
3.203864
3.175593
3.144229
3.109957
3.072958
3.033411
2.991496
2.947388
2.901261
2.85329
2.803646
2.752499
2.700019
2.646377
2.591745
2.5363
2.480226
2.423726
2.367027
2.310399
2.254184
2.198831
2.144966
2.093412
2.045174
2.001411
1.963407
1.932552
1.910332
1.898347
0.05059141
0.1517429
0.2555248
0.36209
0.4715308
0.5838616
0.6989946
0.81671
0.9366213
1.058134
1.18054
1.303571
1.426816
1.54977
1.671875
1.79255
1.911211
2.027296
2.140271
2.249644
2.354966
2.455836
2.551901
2.642853
2.728426
2.808395
2.882569
2.950792
3.012935
3.068896
3.118596
3.161977
3.198999
3.229729
3.254473
3.273517
3.28713
3.295568
3.299072
3.297873
3.292194
3.282248
3.268243
3.25038
3.228856
3.203864
3.175593
3.144229
3.109957
3.072958
3.033411
2.991496
2.947388
2.901261
2.85329
2.803646
2.752499
2.700019
2.646377
2.591745
2.5363
2.480226
2.423726
2.367027
2.310399
2.254184
2.198831
2.144966
2.093412
2.045174
2.001411
1.963407
1.932552
1.910332
1.898347
)
;
    }
    wall
    {
        type            fixedValue;
        value           uniform 1e-10;
    }
    frontAndBack
    {
        type            empty;
    }
    middle
    {
        type            symmetryPlane;
        value           nonuniform List<scalar> 2(1.898347 1.898347);
    }
}


// ************************************************************************* //
