/*--------------------------------*- C++ -*----------------------------------*\
| =========                 |                                                 |
| \\      /  F ield         | foam-extend: Open Source CFD                    |
|  \\    /   O peration     | Version:     4.0                                |
|   \\  /    A nd           | Web:         http://www.foam-extend.org         |
|    \\/     M anipulation  |                                                 |
\*---------------------------------------------------------------------------*/
FoamFile
{
    version     2.0;
    format      ascii;
    class       volScalarField;
    location    "100";
    object      fp;
}
// * * * * * * * * * * * * * * * * * * * * * * * * * * * * * * * * * * * * * //

dimensions      [0 0 0 0 0 0 0];

internalField   nonuniform List<scalar> 
150
(
3.329534
3.329454
3.327785
3.327719
3.324665
3.324621
3.319701
3.319676
3.312071
3.31206
3.301242
3.30124
3.287472
3.287475
3.271752
3.271757
3.254415
3.254421
3.232312
3.232319
3.20282
3.202827
3.168765
3.168771
3.135344
3.135349
3.104634
3.10464
3.07726
3.077265
3.053157
3.053161
3.031898
3.031902
3.012837
3.012841
2.995195
2.995199
2.978145
2.978148
2.960891
2.960893
2.942732
2.942734
2.923112
2.923113
2.901638
2.90164
2.878084
2.878085
2.852366
2.852367
2.824522
2.824523
2.794677
2.794678
2.763018
2.763018
2.729759
2.72976
2.695131
2.695132
2.659357
2.659358
2.622643
2.622644
2.585174
2.585175
2.547109
2.54711
2.508578
2.508579
2.469683
2.469683
2.430499
2.430499
2.391077
2.391077
2.351447
2.351447
2.311619
2.311619
2.271589
2.271589
2.231334
2.231334
2.190824
2.190823
2.150012
2.150012
2.108848
2.108847
2.06727
2.067269
2.02521
2.025209
1.982595
1.982595
1.939347
1.939347
1.895382
1.895382
1.850613
1.850612
1.804949
1.804949
1.758296
1.758296
1.710558
1.710558
1.661634
1.661634
1.611425
1.611425
1.55983
1.55983
1.50675
1.50675
1.452093
1.452093
1.395787
1.395787
1.337797
1.337797
1.27819
1.27819
1.217297
1.217297
1.15635
1.15635
1.099016
1.099015
1.053016
1.053015
1.025264
1.025264
1.012326
1.012326
1.006458
1.006458
1.003567
1.003567
1.001783
1.001783
1.001031
1.001031
1.00011
1.00011
1.000136
1.000136
)
;

boundaryField
{
    leftandright
    {
        type            cyclic;
        value           nonuniform List<scalar> 
150
(
3.329494
3.327752
3.324643
3.319689
3.312065
3.301241
3.287473
3.271755
3.254418
3.232315
3.202824
3.168768
3.135346
3.104637
3.077262
3.053159
3.0319
3.012839
2.995197
2.978147
2.960892
2.942733
2.923112
2.901639
2.878084
2.852366
2.824522
2.794678
2.763018
2.72976
2.695132
2.659357
2.622643
2.585174
2.547109
2.508578
2.469683
2.430499
2.391077
2.351447
2.311619
2.271589
2.231334
2.190823
2.150012
2.108848
2.067269
2.025209
1.982595
1.939347
1.895382
1.850613
1.804949
1.758296
1.710558
1.661634
1.611425
1.55983
1.50675
1.452093
1.395787
1.337797
1.27819
1.217297
1.15635
1.099016
1.053015
1.025264
1.012326
1.006458
1.003567
1.001783
1.001031
1.00011
1.000136
3.329494
3.327752
3.324643
3.319689
3.312065
3.301241
3.287473
3.271755
3.254418
3.232315
3.202824
3.168768
3.135346
3.104637
3.077262
3.053159
3.0319
3.012839
2.995197
2.978147
2.960892
2.942733
2.923112
2.901639
2.878084
2.852366
2.824522
2.794678
2.763018
2.72976
2.695132
2.659357
2.622643
2.585174
2.547109
2.508578
2.469683
2.430499
2.391077
2.351447
2.311619
2.271589
2.231334
2.190823
2.150012
2.108848
2.067269
2.025209
1.982595
1.939347
1.895382
1.850613
1.804949
1.758296
1.710558
1.661634
1.611425
1.55983
1.50675
1.452093
1.395787
1.337797
1.27819
1.217297
1.15635
1.099016
1.053015
1.025264
1.012326
1.006458
1.003567
1.001783
1.001031
1.00011
1.000136
)
;
    }
    wall
    {
        type            calculated;
        value           nonuniform List<scalar> 2(3.329534 3.329454);
    }
    frontAndBack
    {
        type            empty;
    }
    middle
    {
        type            symmetryPlane;
        value           nonuniform List<scalar> 2(1.000136 1.000136);
    }
}


// ************************************************************************* //
