/*--------------------------------*- C++ -*----------------------------------*\
| =========                 |                                                 |
| \\      /  F ield         | foam-extend: Open Source CFD                    |
|  \\    /   O peration     | Version:     4.0                                |
|   \\  /    A nd           | Web:         http://www.foam-extend.org         |
|    \\/     M anipulation  |                                                 |
\*---------------------------------------------------------------------------*/
FoamFile
{
    version     2.0;
    format      ascii;
    class       volScalarField;
    location    "100";
    object      k;
}
// * * * * * * * * * * * * * * * * * * * * * * * * * * * * * * * * * * * * * //

dimensions      [0 2 -2 0 0 0 0];

internalField   nonuniform List<scalar> 
150
(
0.005648439
0.005648439
0.06031286
0.06031287
0.1595437
0.1595437
0.3045076
0.3045076
0.4962189
0.496219
0.7349608
0.7349609
1.019721
1.019721
1.347918
1.347918
1.715581
1.715581
2.117497
2.117498
2.544141
2.544141
2.978324
2.978324
3.405181
3.405181
3.811263
3.811264
4.185444
4.185444
4.519408
4.519408
4.807768
4.807769
5.047891
5.047891
5.239513
5.239514
5.384267
5.384268
5.485164
5.485164
5.546118
5.546118
5.571539
5.571539
5.565997
5.565997
5.533984
5.533984
5.479739
5.47974
5.40715
5.40715
5.319692
5.319692
5.220413
5.220413
5.111946
5.111946
4.996526
4.996526
4.876032
4.876032
4.752024
4.752024
4.625782
4.625782
4.498351
4.498351
4.37057
4.37057
4.243114
4.243114
4.116514
4.116514
3.991186
3.991186
3.867453
3.867453
3.74556
3.74556
3.625687
3.625687
3.507966
3.507966
3.392489
3.392489
3.279314
3.279314
3.168476
3.168477
3.059992
3.059992
2.95386
2.95386
2.850073
2.850073
2.748614
2.748614
2.649459
2.649459
2.552584
2.552584
2.457962
2.457962
2.365564
2.365564
2.275361
2.275361
2.187323
2.187323
2.101417
2.101417
2.017608
2.017608
1.935858
1.935858
1.856119
1.856119
1.778336
1.778336
1.702439
1.702439
1.628345
1.628345
1.555952
1.555952
1.485148
1.485148
1.415836
1.415836
1.34802
1.34802
1.282043
1.282043
1.218787
1.218787
1.159587
1.159587
1.106016
1.106016
1.059736
1.059736
1.022413
1.022413
0.9957259
0.9957258
0.9813966
0.9813966
)
;

boundaryField
{
    leftandright
    {
        type            cyclic;
        value           nonuniform List<scalar> 
150
(
0.005648439
0.06031286
0.1595437
0.3045076
0.496219
0.7349608
1.019721
1.347918
1.715581
2.117497
2.544141
2.978324
3.405181
3.811263
4.185444
4.519408
4.807769
5.047891
5.239514
5.384267
5.485164
5.546118
5.571539
5.565997
5.533984
5.479739
5.40715
5.319692
5.220413
5.111946
4.996526
4.876032
4.752024
4.625782
4.498351
4.37057
4.243114
4.116514
3.991186
3.867453
3.74556
3.625687
3.507966
3.392489
3.279314
3.168477
3.059992
2.95386
2.850073
2.748614
2.649459
2.552584
2.457962
2.365564
2.275361
2.187323
2.101417
2.017608
1.935858
1.856119
1.778336
1.702439
1.628345
1.555952
1.485148
1.415836
1.34802
1.282043
1.218787
1.159587
1.106016
1.059736
1.022413
0.9957259
0.9813966
0.005648439
0.06031286
0.1595437
0.3045076
0.496219
0.7349608
1.019721
1.347918
1.715581
2.117497
2.544141
2.978324
3.405181
3.811263
4.185444
4.519408
4.807769
5.047891
5.239514
5.384267
5.485164
5.546118
5.571539
5.565997
5.533984
5.479739
5.40715
5.319692
5.220413
5.111946
4.996526
4.876032
4.752024
4.625782
4.498351
4.37057
4.243114
4.116514
3.991186
3.867453
3.74556
3.625687
3.507966
3.392489
3.279314
3.168477
3.059992
2.95386
2.850073
2.748614
2.649459
2.552584
2.457962
2.365564
2.275361
2.187323
2.101417
2.017608
1.935858
1.856119
1.778336
1.702439
1.628345
1.555952
1.485148
1.415836
1.34802
1.282043
1.218787
1.159587
1.106016
1.059736
1.022413
0.9957259
0.9813966
)
;
    }
    wall
    {
        type            fixedValue;
        value           uniform 1e-10;
    }
    frontAndBack
    {
        type            empty;
    }
    middle
    {
        type            symmetryPlane;
        value           nonuniform List<scalar> 2(0.9813966 0.9813966);
    }
}


// ************************************************************************* //
