/*--------------------------------*- C++ -*----------------------------------*\
| =========                 |                                                 |
| \\      /  F ield         | foam-extend: Open Source CFD                    |
|  \\    /   O peration     | Version:     4.0                                |
|   \\  /    A nd           | Web:         http://www.foam-extend.org         |
|    \\/     M anipulation  |                                                 |
\*---------------------------------------------------------------------------*/
FoamFile
{
    version     2.0;
    format      ascii;
    class       volSymmTensorField;
    location    "100";
    object      N;
}
// * * * * * * * * * * * * * * * * * * * * * * * * * * * * * * * * * * * * * //

dimensions      [0 2 -2 0 0 0 0];

internalField   nonuniform List<symmTensor> 
150
(
(0.0110879 0 0 8.526132e-07 0 0.0002081217)
(0.0110879 0 0 8.526134e-07 0 0.000208126)
(0.118361 0 0 4.141898e-05 0 0.002223284)
(0.118361 0 0 4.141899e-05 0 0.002223322)
(0.3112943 0 0 0.0002494359 0 0.007543527)
(0.3112944 0 0 0.0002494359 0 0.007543528)
(0.5894439 0 0 0.0008195219 0 0.01875179)
(0.5894439 0 0 0.0008195221 0 0.01875179)
(0.9534983 0 0 0.001979958 0 0.03695964)
(0.9534983 0 0 0.001979958 0 0.03695965)
(1.402692 0 0 0.003964519 0 0.06326547)
(1.402692 0 0 0.00396452 0 0.06326548)
(1.934039 2.305424e-18 0 0.006990219 0 0.09841299)
(1.934039 -2.305424e-18 0 0.006990221 0 0.09841301)
(2.541805 0 0 0.01124323 0 0.142787)
(2.541805 0 0 0.01124324 0 0.142787)
(3.217833 0 0 0.01687445 0 0.1964535)
(3.217834 -8.197535e-18 0 0.01687445 0 0.1964536)
(3.951824 0 0 0.02399527 0 0.2591753)
(3.951825 0 0 0.02399527 0 0.2591754)
(4.725699 0 0 0.03262297 0 0.3299595)
(4.7257 0 0 0.03262298 0 0.3299596)
(5.506988 -2.863551e-17 0 0.04270623 0 0.4069531)
(5.506988 2.863551e-17 0 0.04270624 0 0.4069532)
(6.267769 0 0 0.05419423 0 0.4883982)
(6.26777 0 0 0.05419425 0 0.4883983)
(6.983084 3.596447e-17 0 0.06700462 0 0.5724376)
(6.983085 -3.596448e-17 0 0.06700464 0 0.5724377)
(7.632625 0 0 0.08102752 0 0.6572358)
(7.632625 0 0 0.08102753 0 0.6572358)
(8.201603 -4.153726e-17 0 0.09613108 0 0.741082)
(8.201603 0 0 0.0961311 0 0.7410821)
(8.6809 0 0 0.1121682 0 0.8224682)
(8.680901 0 0 0.1121682 0 0.8224683)
(9.06666 8.990503e-17 0 0.1289831 0 0.9001381)
(9.06666 0 0 0.1289831 0 0.9001382)
(9.359501 0 0 0.1464179 0 0.9731085)
(9.359501 0 0 0.1464179 0 0.9731086)
(9.563551 -1.849484e-16 0 0.1643173 0 1.040667)
(9.563551 9.247422e-17 0 0.1643173 0 1.040667)
(9.685444 0 0 0.1825329 0 1.10235)
(9.685445 0 0 0.1825329 0 1.10235)
(9.733396 1.828023e-16 0 0.2009253 0 1.157915)
(9.733397 0 0 0.2009253 0 1.157915)
(9.716413 1.795363e-16 0 0.2193659 0 1.207298)
(9.716413 0 0 0.219366 0 1.207298)
(9.643675 0 0 0.2377376 0 1.250582)
(9.643675 0 0 0.2377376 0 1.250582)
(9.524079 -1.697517e-16 0 0.2559343 0 1.287954)
(9.524079 0 0 0.2559343 0 1.287954)
(9.365938 -1.636565e-16 0 0.273861 0 1.31968)
(9.365938 0 0 0.273861 0 1.31968)
(9.176792 -3.140236e-16 0 0.291433 0 1.346075)
(9.176792 0 0 0.291433 0 1.346075)
(8.963326 0 0 0.3085749 0 1.367482)
(8.963327 0 0 0.308575 0 1.367482)
(8.731352 0 0 0.3252204 0 1.384255)
(8.731352 0 0 0.3252205 0 1.384255)
(8.485833 0 0 0.3413111 0 1.396748)
(8.485833 0 0 0.3413112 0 1.396748)
(8.230949 2.557595e-16 0 0.3567965 0 1.405306)
(8.230949 -2.557595e-16 0 0.3567966 0 1.405306)
(7.970169 2.410293e-16 0 0.3716335 0 1.410262)
(7.970169 0 0 0.3716336 0 1.410262)
(7.706333 -6.796549e-16 0 0.3857868 0 1.411927)
(7.706334 0 0 0.3857868 0 1.411927)
(7.441737 0 0 0.3992288 0 1.410599)
(7.441737 0 0 0.3992288 0 1.410599)
(7.178208 3.975079e-16 0 0.4119401 0 1.406554)
(7.178208 0 0 0.4119401 0 1.406554)
(6.917187 0 0 0.4239068 0 1.400047)
(6.917187 0 0 0.4239068 0 1.400047)
(6.659797 6.917802e-16 0 0.435119 0 1.391312)
(6.659797 -3.458901e-16 0 0.435119 0 1.391312)
(6.406896 0 0 0.4455701 0 1.380561)
(6.406896 0 0 0.4455701 0 1.380561)
(6.15913 0 0 0.4552559 0 1.367987)
(6.15913 0 0 0.4552559 0 1.367987)
(5.916971 0 0 0.4641742 0 1.353762)
(5.916971 0 0 0.4641742 0 1.353762)
(5.680752 0 0 0.4723247 0 1.338043)
(5.680752 0 0 0.4723247 0 1.338043)
(5.450693 0 0 0.4797089 0 1.320972)
(5.450693 0 0 0.4797089 0 1.320972)
(5.226925 0 0 0.4863296 0 1.302677)
(5.226925 0 0 0.4863296 0 1.302677)
(5.009509 -8.074763e-16 0 0.4921917 0 1.283277)
(5.009509 0 0 0.4921917 0 1.283277)
(4.798449 -3.717197e-16 0 0.4973012 0 1.262878)
(4.798449 0 0 0.4973012 0 1.262878)
(4.593709 0 0 0.5016664 0 1.241578)
(4.593709 0 0 0.5016664 0 1.241578)
(4.395218 0 0 0.5052969 0 1.219468)
(4.395218 0 0 0.5052969 0 1.219468)
(4.202883 0 0 0.5082044 0 1.196633)
(4.202883 0 0 0.5082044 0 1.196633)
(4.016593 5.272396e-16 0 0.5104023 0 1.173151)
(4.016593 0 0 0.5104022 0 1.173151)
(3.836225 4.822574e-16 0 0.5119058 0 1.149096)
(3.836225 -4.822574e-16 0 0.5119058 0 1.149096)
(3.661648 0 0 0.5127319 0 1.124538)
(3.661648 0 0 0.5127319 0 1.124538)
(3.492727 0 0 0.5128991 0 1.099542)
(3.492727 0 0 0.5128991 0 1.099542)
(3.329326 0 0 0.5124271 0 1.074171)
(3.329326 0 0 0.5124271 0 1.074171)
(3.171309 0 0 0.5113365 0 1.048483)
(3.171309 0 0 0.5113365 0 1.048483)
(3.018541 0 0 0.509648 0 1.022533)
(3.018541 0 0 0.5096479 0 1.022533)
(2.870892 -5.488364e-16 0 0.5073814 0 0.9963715)
(2.870892 5.488364e-16 0 0.5073814 0 0.9963715)
(2.728235 0 0 0.5045545 0 0.9700433)
(2.728235 0 0 0.5045545 0 0.9700432)
(2.590448 0 0 0.5011813 0 0.9435872)
(2.590448 0 0 0.5011813 0 0.9435872)
(2.457412 -4.056956e-16 0 0.4972691 0 0.9170338)
(2.457412 4.056956e-16 0 0.4972691 0 0.9170338)
(2.329019 0 0 0.4928155 0 0.8904028)
(2.329019 0 0 0.4928155 0 0.8904028)
(2.205168 0 0 0.4878035 0 0.8637)
(2.205168 0 0 0.4878034 0 0.8637)
(2.08577 0 0 0.4821949 0 0.836913)
(2.08577 0 0 0.4821949 0 0.836913)
(1.970762 -1.058065e-15 0 0.475922 0 0.8100059)
(1.970762 0 0 0.4759219 0 0.8100059)
(1.860117 0 0 0.4688744 0 0.7829132)
(1.860117 -4.731082e-16 0 0.4688743 0 0.7829132)
(1.753879 0 0 0.4608834 0 0.7555331)
(1.753879 0 0 0.4608833 0 0.7555331)
(1.652244 0 0 0.4517003 0 0.7277272)
(1.652244 0 0 0.4517002 0 0.7277271)
(1.555731 0 0 0.4409725 0 0.6993373)
(1.555731 -6.703354e-16 0 0.4409724 0 0.6993373)
(1.464341 0 0 0.4290261 0 0.6707196)
(1.464341 0 0 0.4290261 0 0.6707195)
(1.378661 0 0 0.4163965 0 0.6425157)
(1.378661 0 0 0.4163965 0 0.6425157)
(1.299915 0 0 0.4037026 0 0.6155553)
(1.299915 0 0 0.4037026 0 0.6155553)
(1.229674 0 0 0.3915979 0 0.5907599)
(1.229674 0 0 0.3915979 0 0.5907599)
(1.169666 0 0 0.3807313 0 0.5690744)
(1.169666 0 0 0.3807313 0 0.5690744)
(1.121676 0 0 0.3717234 0 0.5514273)
(1.121676 0 0 0.3717234 0 0.5514273)
(1.087563 0 0 0.36516 0 0.5387288)
(1.087563 0 0 0.36516 0 0.5387288)
(1.069313 -5.930315e-16 0 0.361596 0 0.5318843)
(1.069313 0 0 0.361596 0 0.5318843)
)
;

boundaryField
{
    leftandright
    {
        type            cyclic;
        value           nonuniform List<symmTensor> 
150
(
(0.0110879 0 0 8.526133e-07 0 0.0002081239)
(0.118361 0 0 4.141898e-05 0 0.002223303)
(0.3112944 0 0 0.0002494359 0 0.007543527)
(0.5894439 0 0 0.000819522 0 0.01875179)
(0.9534983 0 0 0.001979958 0 0.03695964)
(1.402692 0 0 0.00396452 0 0.06326548)
(1.934039 -1.267732e-33 0 0.00699022 0 0.098413)
(2.541805 0 0 0.01124324 0 0.142787)
(3.217833 -4.098767e-18 0 0.01687445 0 0.1964536)
(3.951824 0 0 0.02399527 0 0.2591753)
(4.7257 0 0 0.03262297 0 0.3299595)
(5.506988 -2.244845e-33 0 0.04270624 0 0.4069531)
(6.267769 0 0 0.05419424 0 0.4883982)
(6.983085 9.344914e-33 0 0.06700463 0 0.5724376)
(7.632625 0 0 0.08102752 0 0.6572358)
(8.201603 -2.076863e-17 0 0.09613109 0 0.7410821)
(8.680901 0 0 0.1121682 0 0.8224683)
(9.06666 4.495252e-17 0 0.1289831 0 0.9001382)
(9.359501 0 0 0.1464179 0 0.9731086)
(9.563551 -4.623711e-17 0 0.1643173 0 1.040667)
(9.685445 0 0 0.1825329 0 1.10235)
(9.733396 9.140114e-17 0 0.2009253 0 1.157915)
(9.716413 8.976814e-17 0 0.219366 0 1.207298)
(9.643675 0 0 0.2377376 0 1.250582)
(9.524079 -8.487584e-17 0 0.2559343 0 1.287954)
(9.365938 -8.182825e-17 0 0.273861 0 1.31968)
(9.176792 -1.570118e-16 0 0.291433 0 1.346075)
(8.963327 0 0 0.308575 0 1.367482)
(8.731352 0 0 0.3252205 0 1.384255)
(8.485833 0 0 0.3413112 0 1.396748)
(8.230949 0 0 0.3567965 0 1.405306)
(7.970169 1.205147e-16 0 0.3716335 0 1.410262)
(7.706333 -3.398275e-16 0 0.3857868 0 1.411927)
(7.441737 0 0 0.3992288 0 1.410599)
(7.178208 1.98754e-16 0 0.4119401 0 1.406554)
(6.917187 0 0 0.4239068 0 1.400047)
(6.659797 1.729451e-16 0 0.435119 0 1.391312)
(6.406896 0 0 0.4455701 0 1.380561)
(6.15913 0 0 0.4552559 0 1.367987)
(5.916971 0 0 0.4641742 0 1.353762)
(5.680752 0 0 0.4723247 0 1.338043)
(5.450693 0 0 0.4797089 0 1.320972)
(5.226925 0 0 0.4863296 0 1.302677)
(5.009509 -4.037381e-16 0 0.4921917 0 1.283277)
(4.798449 -1.858599e-16 0 0.4973012 0 1.262878)
(4.593709 0 0 0.5016664 0 1.241578)
(4.395218 0 0 0.5052969 0 1.219468)
(4.202883 0 0 0.5082044 0 1.196633)
(4.016593 2.636198e-16 0 0.5104022 0 1.173151)
(3.836225 5.340706e-31 0 0.5119058 0 1.149096)
(3.661648 0 0 0.5127319 0 1.124538)
(3.492727 0 0 0.5128991 0 1.099542)
(3.329326 0 0 0.5124271 0 1.074171)
(3.171309 0 0 0.5113365 0 1.048483)
(3.018541 0 0 0.509648 0 1.022533)
(2.870892 -4.821815e-32 0 0.5073814 0 0.9963715)
(2.728235 0 0 0.5045545 0 0.9700432)
(2.590448 0 0 0.5011813 0 0.9435872)
(2.457412 -8.278399e-32 0 0.4972691 0 0.9170338)
(2.329019 0 0 0.4928155 0 0.8904028)
(2.205168 0 0 0.4878034 0 0.8637)
(2.08577 0 0 0.4821949 0 0.836913)
(1.970762 -5.290323e-16 0 0.4759219 0 0.8100059)
(1.860117 -2.365541e-16 0 0.4688744 0 0.7829132)
(1.753879 0 0 0.4608834 0 0.7555331)
(1.652244 0 0 0.4517003 0 0.7277271)
(1.555731 -3.351677e-16 0 0.4409724 0 0.6993373)
(1.464341 0 0 0.4290261 0 0.6707195)
(1.378661 0 0 0.4163965 0 0.6425157)
(1.299915 0 0 0.4037026 0 0.6155553)
(1.229674 0 0 0.3915979 0 0.5907599)
(1.169666 0 0 0.3807313 0 0.5690744)
(1.121676 0 0 0.3717234 0 0.5514273)
(1.087563 0 0 0.36516 0 0.5387288)
(1.069313 -2.965158e-16 0 0.361596 0 0.5318843)
(0.0110879 0 0 8.526133e-07 0 0.0002081239)
(0.118361 0 0 4.141898e-05 0 0.002223303)
(0.3112944 0 0 0.0002494359 0 0.007543527)
(0.5894439 0 0 0.000819522 0 0.01875179)
(0.9534983 0 0 0.001979958 0 0.03695964)
(1.402692 0 0 0.00396452 0 0.06326548)
(1.934039 -1.408591e-33 0 0.00699022 0 0.098413)
(2.541805 0 0 0.01124324 0 0.142787)
(3.217833 -4.098767e-18 0 0.01687445 0 0.1964536)
(3.951824 0 0 0.02399527 0 0.2591753)
(4.7257 0 0 0.03262297 0 0.3299595)
(5.506988 -2.244845e-33 0 0.04270624 0 0.4069531)
(6.267769 0 0 0.05419424 0 0.4883982)
(6.983085 9.344914e-33 0 0.06700463 0 0.5724376)
(7.632625 0 0 0.08102752 0 0.6572358)
(8.201603 -2.076863e-17 0 0.09613109 0 0.7410821)
(8.680901 0 0 0.1121682 0 0.8224683)
(9.06666 4.495252e-17 0 0.1289831 0 0.9001382)
(9.359501 0 0 0.1464179 0 0.9731086)
(9.563551 -4.623711e-17 0 0.1643173 0 1.040667)
(9.685445 0 0 0.1825329 0 1.10235)
(9.733396 9.140114e-17 0 0.2009253 0 1.157915)
(9.716413 8.976814e-17 0 0.219366 0 1.207298)
(9.643675 0 0 0.2377376 0 1.250582)
(9.524079 -8.487584e-17 0 0.2559343 0 1.287954)
(9.365938 -8.182825e-17 0 0.273861 0 1.31968)
(9.176792 -1.570118e-16 0 0.291433 0 1.346075)
(8.963327 0 0 0.308575 0 1.367482)
(8.731352 0 0 0.3252205 0 1.384255)
(8.485833 0 0 0.3413112 0 1.396748)
(8.230949 0 0 0.3567965 0 1.405306)
(7.970169 1.205147e-16 0 0.3716335 0 1.410262)
(7.706333 -3.398275e-16 0 0.3857868 0 1.411927)
(7.441737 0 0 0.3992288 0 1.410599)
(7.178208 1.98754e-16 0 0.4119401 0 1.406554)
(6.917187 0 0 0.4239068 0 1.400047)
(6.659797 1.729451e-16 0 0.435119 0 1.391312)
(6.406896 0 0 0.4455701 0 1.380561)
(6.15913 0 0 0.4552559 0 1.367987)
(5.916971 0 0 0.4641742 0 1.353762)
(5.680752 0 0 0.4723247 0 1.338043)
(5.450693 0 0 0.4797089 0 1.320972)
(5.226925 0 0 0.4863296 0 1.302677)
(5.009509 -4.037381e-16 0 0.4921917 0 1.283277)
(4.798449 -1.858599e-16 0 0.4973012 0 1.262878)
(4.593709 0 0 0.5016664 0 1.241578)
(4.395218 0 0 0.5052969 0 1.219468)
(4.202883 0 0 0.5082044 0 1.196633)
(4.016593 2.636198e-16 0 0.5104022 0 1.173151)
(3.836225 5.340706e-31 0 0.5119058 0 1.149096)
(3.661648 0 0 0.5127319 0 1.124538)
(3.492727 0 0 0.5128991 0 1.099542)
(3.329326 0 0 0.5124271 0 1.074171)
(3.171309 0 0 0.5113365 0 1.048483)
(3.018541 0 0 0.509648 0 1.022533)
(2.870892 -4.821815e-32 0 0.5073814 0 0.9963715)
(2.728235 0 0 0.5045545 0 0.9700432)
(2.590448 0 0 0.5011813 0 0.9435872)
(2.457412 -8.278399e-32 0 0.4972691 0 0.9170338)
(2.329019 0 0 0.4928155 0 0.8904028)
(2.205168 0 0 0.4878034 0 0.8637)
(2.08577 0 0 0.4821949 0 0.836913)
(1.970762 -5.290323e-16 0 0.4759219 0 0.8100059)
(1.860117 -2.365541e-16 0 0.4688744 0 0.7829132)
(1.753879 0 0 0.4608834 0 0.7555331)
(1.652244 0 0 0.4517003 0 0.7277271)
(1.555731 -3.351677e-16 0 0.4409724 0 0.6993373)
(1.464341 0 0 0.4290261 0 0.6707195)
(1.378661 0 0 0.4163965 0 0.6425157)
(1.299915 0 0 0.4037026 0 0.6155553)
(1.229674 0 0 0.3915979 0 0.5907599)
(1.169666 0 0 0.3807313 0 0.5690744)
(1.121676 0 0 0.3717234 0 0.5514273)
(1.087563 0 0 0.36516 0 0.5387288)
(1.069313 -2.965158e-16 0 0.361596 0 0.5318843)
)
;
    }
    wall
    {
        type            calculated;
        value           uniform (3.333333e-11 0 0 1e-10 0 6.666667e-11);
    }
    frontAndBack
    {
        type            empty;
    }
    middle
    {
        type            symmetryPlane;
        value           nonuniform List<symmTensor> 2((1.069313 0 0 0.5318843 0 0.5318843) (1.069313 0 0 0.5318843 0 0.5318843));
    }
}


// ************************************************************************* //
