/*--------------------------------*- C++ -*----------------------------------*\
| =========                 |                                                 |
| \\      /  F ield         | foam-extend: Open Source CFD                    |
|  \\    /   O peration     | Version:     4.0                                |
|   \\  /    A nd           | Web:         http://www.foam-extend.org         |
|    \\/     M anipulation  |                                                 |
\*---------------------------------------------------------------------------*/
FoamFile
{
    version     2.0;
    format      ascii;
    class       volSymmTensorField;
    location    "100";
    object      NLT;
}
// * * * * * * * * * * * * * * * * * * * * * * * * * * * * * * * * * * * * * //

dimensions      [0 0 -1 0 0 0 0];

internalField   nonuniform List<symmTensor> 
150
(
(0.001652271 0 0 1.621131e-07 0 0)
(0.0016522 0 0 1.621062e-07 0 0)
(0.08547845 0 0 3.81557e-05 0 0)
(0.08547575 0 0 3.81545e-05 0 0)
(0.5442268 0 0 0.0005530606 0 0)
(0.5442173 0 0 0.0005530509 0 0)
(1.869928 0 0 0.003271152 0 0)
(1.869914 0 0 0.003271128 0 0)
(4.655598 0 0 0.01207457 0 0)
(4.655589 0 0 0.01207454 0 0)
(9.438072 0 0 0.033092 0 0)
(9.43808 0 0 0.03309203 0 0)
(16.53779 -1.858217e-18 0 0.07368857 0 0)
(16.53783 1.858222e-18 0 0.07368875 0 0)
(25.99411 0 0 0.1409341 0 0)
(25.99419 0 0 0.1409346 0 0)
(37.62234 0 0 0.2405346 0 0)
(37.62247 1.098011e-17 0 0.2405354 0 0)
(52.29223 0 0 0.3851706 0 0)
(52.29241 0 0 0.385172 0 0)
(76.9427 0 0 0.6413028 0 0)
(76.94295 0 0 0.641305 0 0)
(106.0239 7.768651e-17 0 0.9881811 0 0)
(106.0242 -7.768675e-17 0 0.9881842 0 0)
(139.6201 0 0 1.444356 0 0)
(139.6205 0 0 1.44436 0 0)
(177.8066 -1.445796e-16 0 2.031875 0 0)
(177.807 1.4458e-16 0 2.031881 0 0)
(220.7266 0 0 2.777532 0 0)
(220.7272 0 0 2.777539 0 0)
(268.5394 2.391194e-16 0 3.712818 0 0)
(268.54 0 0 3.712827 0 0)
(321.3704 0 0 4.873549 0 0)
(321.3711 0 0 4.87356 0 0)
(379.2649 -7.343804e-16 0 6.299105 0 0)
(379.2657 0 0 6.299118 0 0)
(442.1475 0 0 8.031259 0 0)
(442.1483 0 0 8.031276 0 0)
(509.7949 2.134219e-15 0 10.11266 0 0)
(509.7958 -1.067111e-15 0 10.11268 0 0)
(581.824 0 0 12.5851 0 0)
(581.8249 0 0 12.58512 0 0)
(657.6957 -2.95841e-15 0 15.48759 0 0)
(657.6967 0 0 15.48762 0 0)
(736.7335 -3.426438e-15 0 18.85462 0 0)
(736.7344 0 0 18.85465 0 0)
(818.1518 0 0 22.71444 0 0)
(818.1527 0 0 22.71447 0 0)
(901.0901 4.455518e-15 0 27.0877 0 0)
(901.091 0 0 27.08773 0 0)
(984.6478 5.005427e-15 0 31.98634 0 0)
(984.6486 0 0 31.98637 0 0)
(1067.917 1.113982e-14 0 37.41289 0 0)
(1067.918 0 0 37.41291 0 0)
(1150.012 0 0 43.36008 0 0)
(1150.013 0 0 43.36011 0 0)
(1230.092 0 0 49.81086 0 0)
(1230.093 0 0 49.81088 0 0)
(1307.379 0 0 56.73866 0 0)
(1307.38 0 0 56.73869 0 0)
(1381.17 -1.563768e-14 0 64.10812 0 0)
(1381.171 1.563769e-14 0 64.10815 0 0)
(1450.846 -1.667988e-14 0 71.87586 0 0)
(1450.847 0 0 71.8759 0 0)
(1515.874 5.298182e-14 0 79.99176 0 0)
(1515.875 0 0 79.9918 0 0)
(1575.81 0 0 88.40034 0 0)
(1575.811 0 0 88.40037 0 0)
(1630.295 -3.878392e-14 0 97.04211 0 0)
(1630.295 0 0 97.04213 0 0)
(1679.04 0 0 105.8538 0 0)
(1679.04 0 0 105.8538 0 0)
(1721.818 -8.303221e-14 0 114.7689 0 0)
(1721.818 4.15161e-14 0 114.7688 0 0)
(1758.456 0 0 123.7176 0 0)
(1758.457 0 0 123.7176 0 0)
(1788.825 0 0 132.6278 0 0)
(1788.826 0 0 132.6279 0 0)
(1812.833 0 0 141.4253 0 0)
(1812.834 0 0 141.4253 0 0)
(1830.422 0 0 150.0336 0 0)
(1830.422 0 0 150.0336 0 0)
(1841.557 0 0 158.3748 0 0)
(1841.558 0 0 158.3748 0 0)
(1846.226 0 0 166.3694 0 0)
(1846.226 0 0 166.3694 0 0)
(1844.43 1.775406e-13 0 173.9368 0 0)
(1844.43 0 0 173.9368 0 0)
(1836.186 8.788069e-14 0 180.995 0 0)
(1836.186 0 0 180.995 0 0)
(1821.515 0 0 187.4609 0 0)
(1821.516 0 0 187.4609 0 0)
(1800.445 0 0 193.25 0 0)
(1800.445 0 0 193.25 0 0)
(1773.003 0 0 198.2765 0 0)
(1773.003 0 0 198.2765 0 0)
(1739.216 -1.610581e-13 0 202.4527 0 0)
(1739.216 0 0 202.4527 0 0)
(1699.108 -1.556755e-13 0 205.6888 0 0)
(1699.108 1.556755e-13 0 205.6888 0 0)
(1652.695 0 0 207.8927 0 0)
(1652.695 0 0 207.8927 0 0)
(1599.988 0 0 208.9691 0 0)
(1599.988 0 0 208.969 0 0)
(1540.987 0 0 208.8187 0 0)
(1540.987 0 0 208.8186 0 0)
(1475.684 0 0 207.3379 0 0)
(1475.684 0 0 207.3379 0 0)
(1404.059 0 0 204.4178 0 0)
(1404.059 0 0 204.4177 0 0)
(1326.083 2.244133e-13 0 199.9428 0 0)
(1326.083 -2.244132e-13 0 199.9428 0 0)
(1241.719 0 0 193.7907 0 0)
(1241.72 0 0 193.7907 0 0)
(1150.925 0 0 185.8311 0 0)
(1150.925 0 0 185.8311 0 0)
(1053.658 1.7003e-13 0 175.9264 0 0)
(1053.658 -1.700299e-13 0 175.9263 0 0)
(949.887 0 0 163.9321 0 0)
(949.887 0 0 163.932 0 0)
(839.62 0 0 149.7019 0 0)
(839.62 0 0 149.7019 0 0)
(722.9483 0 0 133.098 0 0)
(722.9483 0 0 133.098 0 0)
(600.1767 3.611091e-13 0 114.0202 0 0)
(600.1765 0 0 114.0201 0 0)
(472.1664 0 0 92.48445 0 0)
(472.1664 1.393304e-13 0 92.48444 0 0)
(341.6947 0 0 68.92438 0 0)
(341.6946 0 0 68.92437 0 0)
(216.963 0 0 44.99212 0 0)
(216.9624 0 0 44.99199 0 0)
(115.8859 0 0 24.64104 0 0)
(115.885 6.393144e-14 0 24.64085 0 0)
(55.17129 0 0 12.00073 0 0)
(55.17087 0 0 12.00064 0 0)
(27.13911 0 0 6.026822 0 0)
(27.13905 0 0 6.026808 0 0)
(14.35654 0 0 3.24879 0 0)
(14.35654 0 0 3.248788 0 0)
(7.993086 0 0 1.839529 0 0)
(7.993074 0 0 1.839526 0 0)
(4.000019 0 0 0.9341067 0 0)
(4.000004 0 0 0.9341031 0 0)
(2.345916 0 0 0.5543948 0 0)
(2.345916 0 0 0.5543947 0 0)
(0.2247656 0 0 0.05357803 0 0)
(0.2247675 0 0 0.05357848 0 0)
(0.3108352 2.592482e-16 0 0.07444279 0 0)
(0.3108344 0 0 0.0744426 0 0)
)
;

boundaryField
{
    leftandright
    {
        type            cyclic;
        value           nonuniform List<symmTensor> 
150
(
(0.001652235 0 0 1.621096e-07 0 0)
(0.0854771 0 0 3.81551e-05 0 0)
(0.544222 0 0 0.0005530558 0 0)
(1.869921 0 0 0.00327114 0 0)
(4.655594 0 0 0.01207455 0 0)
(9.438076 0 0 0.03309201 0 0)
(16.53781 1.021818e-33 0 0.07368866 0 0)
(25.99415 0 0 0.1409344 0 0)
(37.6224 5.490043e-18 0 0.240535 0 0)
(52.29232 0 0 0.3851713 0 0)
(76.94283 0 0 0.6413039 0 0)
(106.0241 6.090146e-33 0 0.9881827 0 0)
(139.6203 0 0 1.444358 0 0)
(177.8068 -3.756724e-32 0 2.031878 0 0)
(220.7269 0 0 2.777535 0 0)
(268.5397 1.195599e-16 0 3.712822 0 0)
(321.3708 0 0 4.873555 0 0)
(379.2653 -3.671906e-16 0 6.299111 0 0)
(442.1479 0 0 8.031267 0 0)
(509.7953 5.335552e-16 0 10.11267 0 0)
(581.8245 0 0 12.58511 0 0)
(657.6962 -1.479206e-15 0 15.4876 0 0)
(736.7339 -1.71322e-15 0 18.85463 0 0)
(818.1522 0 0 22.71446 0 0)
(901.0905 2.22776e-15 0 27.08771 0 0)
(984.6482 2.502715e-15 0 31.98635 0 0)
(1067.918 5.569914e-15 0 37.4129 0 0)
(1150.013 0 0 43.36009 0 0)
(1230.093 0 0 49.81087 0 0)
(1307.379 0 0 56.73868 0 0)
(1381.17 0 0 64.10813 0 0)
(1450.846 -8.339942e-15 0 71.87588 0 0)
(1515.875 2.649092e-14 0 79.99178 0 0)
(1575.81 0 0 88.40035 0 0)
(1630.295 -1.939196e-14 0 97.04212 0 0)
(1679.04 0 0 105.8538 0 0)
(1721.818 -2.075805e-14 0 114.7688 0 0)
(1758.457 0 0 123.7176 0 0)
(1788.825 0 0 132.6279 0 0)
(1812.834 0 0 141.4253 0 0)
(1830.422 0 0 150.0336 0 0)
(1841.557 0 0 158.3748 0 0)
(1846.226 0 0 166.3694 0 0)
(1844.43 8.877032e-14 0 173.9368 0 0)
(1836.186 4.394035e-14 0 180.995 0 0)
(1821.515 0 0 187.4609 0 0)
(1800.445 0 0 193.25 0 0)
(1773.003 0 0 198.2765 0 0)
(1739.216 -8.052904e-14 0 202.4527 0 0)
(1699.108 -1.724011e-28 0 205.6888 0 0)
(1652.695 0 0 207.8927 0 0)
(1599.988 0 0 208.9691 0 0)
(1540.987 0 0 208.8186 0 0)
(1475.684 0 0 207.3379 0 0)
(1404.059 0 0 204.4178 0 0)
(1326.083 1.971588e-29 0 199.9428 0 0)
(1241.72 0 0 193.7907 0 0)
(1150.925 0 0 185.8311 0 0)
(1053.658 3.469536e-29 0 175.9264 0 0)
(949.887 0 0 163.932 0 0)
(839.62 0 0 149.7019 0 0)
(722.9483 0 0 133.098 0 0)
(600.1766 1.805545e-13 0 114.0202 0 0)
(472.1664 6.966519e-14 0 92.48445 0 0)
(341.6946 0 0 68.92438 0 0)
(216.9627 0 0 44.99206 0 0)
(115.8855 3.196584e-14 0 24.64095 0 0)
(55.17108 0 0 12.00068 0 0)
(27.13908 0 0 6.026815 0 0)
(14.35654 0 0 3.248789 0 0)
(7.99308 0 0 1.839528 0 0)
(4.000011 0 0 0.9341049 0 0)
(2.345916 0 0 0.5543948 0 0)
(0.2247666 0 0 0.05357826 0 0)
(0.3108348 1.296239e-16 0 0.0744427 0 0)
(0.001652235 0 0 1.621096e-07 0 0)
(0.0854771 0 0 3.81551e-05 0 0)
(0.544222 0 0 0.0005530558 0 0)
(1.869921 0 0 0.00327114 0 0)
(4.655594 0 0 0.01207455 0 0)
(9.438076 0 0 0.03309201 0 0)
(16.53781 1.135354e-33 0 0.07368866 0 0)
(25.99415 0 0 0.1409344 0 0)
(37.6224 5.490043e-18 0 0.240535 0 0)
(52.29232 0 0 0.3851713 0 0)
(76.94283 0 0 0.6413039 0 0)
(106.0241 6.090146e-33 0 0.9881827 0 0)
(139.6203 0 0 1.444358 0 0)
(177.8068 -3.756724e-32 0 2.031878 0 0)
(220.7269 0 0 2.777535 0 0)
(268.5397 1.195599e-16 0 3.712822 0 0)
(321.3708 0 0 4.873555 0 0)
(379.2653 -3.671906e-16 0 6.299111 0 0)
(442.1479 0 0 8.031267 0 0)
(509.7953 5.335552e-16 0 10.11267 0 0)
(581.8245 0 0 12.58511 0 0)
(657.6962 -1.479206e-15 0 15.4876 0 0)
(736.7339 -1.71322e-15 0 18.85463 0 0)
(818.1522 0 0 22.71446 0 0)
(901.0905 2.22776e-15 0 27.08771 0 0)
(984.6482 2.502715e-15 0 31.98635 0 0)
(1067.918 5.569914e-15 0 37.4129 0 0)
(1150.013 0 0 43.36009 0 0)
(1230.093 0 0 49.81087 0 0)
(1307.379 0 0 56.73868 0 0)
(1381.17 0 0 64.10813 0 0)
(1450.846 -8.339942e-15 0 71.87588 0 0)
(1515.875 2.649092e-14 0 79.99178 0 0)
(1575.81 0 0 88.40035 0 0)
(1630.295 -1.939196e-14 0 97.04212 0 0)
(1679.04 0 0 105.8538 0 0)
(1721.818 -2.075805e-14 0 114.7688 0 0)
(1758.457 0 0 123.7176 0 0)
(1788.825 0 0 132.6279 0 0)
(1812.834 0 0 141.4253 0 0)
(1830.422 0 0 150.0336 0 0)
(1841.557 0 0 158.3748 0 0)
(1846.226 0 0 166.3694 0 0)
(1844.43 8.877032e-14 0 173.9368 0 0)
(1836.186 4.394035e-14 0 180.995 0 0)
(1821.515 0 0 187.4609 0 0)
(1800.445 0 0 193.25 0 0)
(1773.003 0 0 198.2765 0 0)
(1739.216 -8.052904e-14 0 202.4527 0 0)
(1699.108 -1.724011e-28 0 205.6888 0 0)
(1652.695 0 0 207.8927 0 0)
(1599.988 0 0 208.9691 0 0)
(1540.987 0 0 208.8186 0 0)
(1475.684 0 0 207.3379 0 0)
(1404.059 0 0 204.4178 0 0)
(1326.083 1.971588e-29 0 199.9428 0 0)
(1241.72 0 0 193.7907 0 0)
(1150.925 0 0 185.8311 0 0)
(1053.658 3.469536e-29 0 175.9264 0 0)
(949.887 0 0 163.932 0 0)
(839.62 0 0 149.7019 0 0)
(722.9483 0 0 133.098 0 0)
(600.1766 1.805545e-13 0 114.0202 0 0)
(472.1664 6.966519e-14 0 92.48445 0 0)
(341.6946 0 0 68.92438 0 0)
(216.9627 0 0 44.99206 0 0)
(115.8855 3.196584e-14 0 24.64095 0 0)
(55.17108 0 0 12.00068 0 0)
(27.13908 0 0 6.026815 0 0)
(14.35654 0 0 3.248789 0 0)
(7.99308 0 0 1.839528 0 0)
(4.000011 0 0 0.9341049 0 0)
(2.345916 0 0 0.5543948 0 0)
(0.2247666 0 0 0.05357826 0 0)
(0.3108348 1.296239e-16 0 0.0744427 0 0)
)
;
    }
    wall
    {
        type            calculated;
        value           nonuniform List<symmTensor> 2((1.869802e-07 0 0 1.215372e-07 0 0) (1.869722e-07 0 0 1.215319e-07 0 0));
    }
    frontAndBack
    {
        type            empty;
    }
    middle
    {
        type            symmetryPlane;
        value           nonuniform List<symmTensor> 2((0.3108352 0 0 0.07444279 0 0) (0.3108344 0 0 0.0744426 0 0));
    }
}


// ************************************************************************* //
