/*--------------------------------*- C++ -*----------------------------------*\
| =========                 |                                                 |
| \\      /  F ield         | foam-extend: Open Source CFD                    |
|  \\    /   O peration     | Version:     4.0                                |
|   \\  /    A nd           | Web:         http://www.foam-extend.org         |
|    \\/     M anipulation  |                                                 |
\*---------------------------------------------------------------------------*/
FoamFile
{
    version     2.0;
    format      ascii;
    class       volSymmTensorField;
    location    "100";
    object      NLTPlus;
}
// * * * * * * * * * * * * * * * * * * * * * * * * * * * * * * * * * * * * * //

dimensions      [0 2 -2 0 0 0 0];

internalField   nonuniform List<symmTensor> 
150
(
(4.182963e-06 0 0 4.10413e-10 0 0)
(4.182784e-06 0 0 4.103954e-10 0 0)
(0.0002164011 0 0 9.659671e-08 0 0)
(0.0002163943 0 0 9.659368e-08 0 0)
(0.001377789 0 0 1.400153e-06 0 0)
(0.001377765 0 0 1.400129e-06 0 0)
(0.004733995 0 0 8.281397e-06 0 0)
(0.00473396 0 0 8.281336e-06 0 0)
(0.01178632 0 0 3.056852e-05 0 0)
(0.0117863 0 0 3.056846e-05 0 0)
(0.02389385 0 0 8.377721e-05 0 0)
(0.02389387 0 0 8.377729e-05 0 0)
(0.04186782 -4.704347e-21 0 0.0001865533 0 0)
(0.04186792 4.704359e-21 0 0.0001865538 0 0)
(0.06580787 0 0 0.0003567953 0 0)
(0.06580808 0 0 0.0003567964 0 0)
(0.09524643 0 0 0.0006089483 0 0)
(0.09524676 2.779773e-20 0 0.0006089505 0 0)
(0.1323854 0 0 0.0009751156 0 0)
(0.1323858 0 0 0.0009751191 0 0)
(0.1947916 0 0 0.001623551 0 0)
(0.1947923 0 0 0.001623557 0 0)
(0.268415 1.966747e-19 0 0.002501724 0 0)
(0.2684158 -1.966753e-19 0 0.002501732 0 0)
(0.3534686 0 0 0.003656597 0 0)
(0.3534696 0 0 0.003656608 0 0)
(0.4501432 -3.660244e-19 0 0.005143987 0 0)
(0.4501444 3.660254e-19 0 0.005144002 0 0)
(0.5588016 0 0 0.007031726 0 0)
(0.5588029 0 0 0.007031744 0 0)
(0.6798466 6.053656e-19 0 0.009399539 0 0)
(0.6798481 0 0 0.009399561 0 0)
(0.813596 0 0 0.0123381 0 0)
(0.8135978 0 0 0.01233813 0 0)
(0.9601642 -1.859191e-18 0 0.0159471 0 0)
(0.9601662 0 0 0.01594714 0 0)
(1.119361 0 0 0.0203323 0 0)
(1.119363 0 0 0.02033234 0 0)
(1.29062 5.403085e-18 0 0.02560168 0 0)
(1.290622 -2.701548e-18 0 0.02560173 0 0)
(1.472972 0 0 0.031861 0 0)
(1.472975 0 0 0.03186106 0 0)
(1.665052 -7.489645e-18 0 0.03920909 0 0)
(1.665055 0 0 0.03920916 0 0)
(1.865148 -8.674525e-18 0 0.04773322 0 0)
(1.86515 0 0 0.04773328 0 0)
(2.07127 0 0 0.05750492 0 0)
(2.071273 0 0 0.05750499 0 0)
(2.281241 1.127979e-17 0 0.06857645 0 0)
(2.281243 0 0 0.06857653 0 0)
(2.492779 1.267197e-17 0 0.08097807 0 0)
(2.492781 0 0 0.08097815 0 0)
(2.703588 2.820209e-17 0 0.09471617 0 0)
(2.70359 0 0 0.09471624 0 0)
(2.911424 0 0 0.1097724 0 0)
(2.911425 0 0 0.1097724 0 0)
(3.114158 0 0 0.1261034 0 0)
(3.114159 0 0 0.1261035 0 0)
(3.30982 0 0 0.1436422 0 0)
(3.309822 0 0 0.1436423 0 0)
(3.496633 -3.958906e-17 0 0.162299 0 0)
(3.496635 3.958908e-17 0 0.1622991 0 0)
(3.673028 -4.222754e-17 0 0.1819642 0 0)
(3.67303 0 0 0.1819643 0 0)
(3.837657 1.341312e-16 0 0.2025108 0 0)
(3.837658 0 0 0.2025109 0 0)
(3.989393 0 0 0.2237983 0 0)
(3.989394 0 0 0.2237984 0 0)
(4.127328 -9.818714e-17 0 0.2456762 0 0)
(4.127329 0 0 0.2456763 0 0)
(4.250733 0 0 0.2679843 0 0)
(4.250734 0 0 0.2679844 0 0)
(4.359034 -2.102081e-16 0 0.2905541 0 0)
(4.359033 1.05104e-16 0 0.290554 0 0)
(4.451788 0 0 0.3132091 0 0)
(4.451789 0 0 0.3132091 0 0)
(4.52867 0 0 0.3357667 0 0)
(4.528672 0 0 0.3357668 0 0)
(4.589452 0 0 0.3580387 0 0)
(4.589453 0 0 0.3580389 0 0)
(4.63398 0 0 0.3798319 0 0)
(4.633981 0 0 0.379832 0 0)
(4.66217 0 0 0.4009488 0 0)
(4.662171 0 0 0.4009489 0 0)
(4.673989 0 0 0.4211884 0 0)
(4.67399 0 0 0.4211885 0 0)
(4.669444 4.4947e-16 0 0.4403463 0 0)
(4.669444 0 0 0.4403463 0 0)
(4.648573 2.224828e-16 0 0.4582152 0 0)
(4.648573 0 0 0.4582153 0 0)
(4.611431 0 0 0.4745845 0 0)
(4.611432 0 0 0.4745846 0 0)
(4.558088 0 0 0.4892406 0 0)
(4.558088 0 0 0.4892406 0 0)
(4.488614 0 0 0.5019657 0 0)
(4.488614 0 0 0.5019657 0 0)
(4.403079 -4.07742e-16 0 0.5125384 0 0)
(4.403079 0 0 0.5125384 0 0)
(4.301539 -3.941151e-16 0 0.5207312 0 0)
(4.301539 3.941151e-16 0 0.5207311 0 0)
(4.184039 0 0 0.5263107 0 0)
(4.184039 0 0 0.5263107 0 0)
(4.050603 0 0 0.5290356 0 0)
(4.050603 0 0 0.5290356 0 0)
(3.901234 0 0 0.5286548 0 0)
(3.901233 0 0 0.5286547 0 0)
(3.735909 0 0 0.5249062 0 0)
(3.735908 0 0 0.5249061 0 0)
(3.55458 0 0 0.5175134 0 0)
(3.554579 0 0 0.5175133 0 0)
(3.357172 5.681349e-16 0 0.5061843 0 0)
(3.357172 -5.681348e-16 0 0.5061842 0 0)
(3.143594 0 0 0.4906092 0 0)
(3.143594 0 0 0.4906093 0 0)
(2.913734 0 0 0.4704586 0 0)
(2.913734 0 0 0.4704585 0 0)
(2.667488 4.304556e-16 0 0.4453833 0 0)
(2.667487 -4.304554e-16 0 0.4453831 0 0)
(2.404777 0 0 0.4150179 0 0)
(2.404777 0 0 0.4150178 0 0)
(2.12562 0 0 0.3789921 0 0)
(2.12562 0 0 0.3789921 0 0)
(1.830249 0 0 0.3369571 0 0)
(1.830249 0 0 0.3369571 0 0)
(1.519435 9.142002e-16 0 0.2886587 0 0)
(1.519434 0 0 0.2886586 0 0)
(1.195358 0 0 0.2341378 0 0)
(1.195358 3.527351e-16 0 0.2341378 0 0)
(0.8650498 0 0 0.1744921 0 0)
(0.8650497 0 0 0.1744921 0 0)
(0.5492733 0 0 0.1139041 0 0)
(0.5492718 0 0 0.1139038 0 0)
(0.2933821 0 0 0.06238238 0 0)
(0.2933799 1.618518e-16 0 0.06238191 0 0)
(0.1396742 0 0 0.03038159 0 0)
(0.1396731 0 0 0.03038136 0 0)
(0.06870661 0 0 0.01525778 0 0)
(0.06870645 0 0 0.01525774 0 0)
(0.03634568 0 0 0.008224785 0 0)
(0.03634566 0 0 0.00822478 0 0)
(0.02023566 0 0 0.004657036 0 0)
(0.02023563 0 0 0.004657029 0 0)
(0.01012663 0 0 0.002364827 0 0)
(0.01012659 0 0 0.002364818 0 0)
(0.005939027 0 0 0.001403531 0 0)
(0.005939027 0 0 0.001403531 0 0)
(0.0005690269 0 0 0.0001356406 0 0)
(0.0005690317 0 0 0.0001356417 0 0)
(0.0007869246 6.563245e-19 0 0.0001884628 0 0)
(0.0007869225 0 0 0.0001884623 0 0)
)
;

boundaryField
{
    leftandright
    {
        type            cyclic;
        value           nonuniform List<symmTensor> 
150
(
(4.182874e-06 0 0 4.104042e-10 0 0)
(0.0002163977 0 0 9.65952e-08 0 0)
(0.001377777 0 0 1.400141e-06 0 0)
(0.004733977 0 0 8.281367e-06 0 0)
(0.01178631 0 0 3.056849e-05 0 0)
(0.02389386 0 0 8.377725e-05 0 0)
(0.04186787 2.586882e-36 0 0.0001865536 0 0)
(0.06580797 0 0 0.0003567959 0 0)
(0.09524659 1.389884e-20 0 0.0006089494 0 0)
(0.1323856 0 0 0.0009751173 0 0)
(0.194792 0 0 0.001623554 0 0)
(0.2684154 1.541809e-35 0 0.002501728 0 0)
(0.3534691 0 0 0.003656602 0 0)
(0.4501438 -9.510694e-35 0 0.005143995 0 0)
(0.5588023 0 0 0.007031735 0 0)
(0.6798473 3.026832e-19 0 0.00939955 0 0)
(0.8135969 0 0 0.01233811 0 0)
(0.9601652 -9.295965e-19 0 0.01594712 0 0)
(1.119362 0 0 0.02033232 0 0)
(1.290621 1.350773e-18 0 0.0256017 0 0)
(1.472973 0 0 0.03186103 0 0)
(1.665054 -3.744826e-18 0 0.03920912 0 0)
(1.865149 -4.337265e-18 0 0.04773325 0 0)
(2.071271 0 0 0.05750496 0 0)
(2.281242 5.639899e-18 0 0.06857649 0 0)
(2.49278 6.335986e-18 0 0.08097811 0 0)
(2.703589 1.410105e-17 0 0.0947162 0 0)
(2.911425 0 0 0.1097724 0 0)
(3.114158 0 0 0.1261035 0 0)
(3.309821 0 0 0.1436422 0 0)
(3.496634 0 0 0.1622991 0 0)
(3.673029 -2.111378e-17 0 0.1819643 0 0)
(3.837657 6.706561e-17 0 0.2025108 0 0)
(3.989393 0 0 0.2237984 0 0)
(4.127329 -4.909357e-17 0 0.2456763 0 0)
(4.250733 0 0 0.2679844 0 0)
(4.359033 -5.255203e-17 0 0.290554 0 0)
(4.451789 0 0 0.3132091 0 0)
(4.528671 0 0 0.3357668 0 0)
(4.589452 0 0 0.3580388 0 0)
(4.63398 0 0 0.3798319 0 0)
(4.66217 0 0 0.4009488 0 0)
(4.67399 0 0 0.4211884 0 0)
(4.669444 2.24735e-16 0 0.4403463 0 0)
(4.648573 1.112414e-16 0 0.4582152 0 0)
(4.611431 0 0 0.4745846 0 0)
(4.558088 0 0 0.4892406 0 0)
(4.488614 0 0 0.5019657 0 0)
(4.403079 -2.03871e-16 0 0.5125384 0 0)
(4.301539 -4.364585e-31 0 0.5207311 0 0)
(4.184039 0 0 0.5263107 0 0)
(4.050603 0 0 0.5290356 0 0)
(3.901234 0 0 0.5286548 0 0)
(3.735909 0 0 0.5249061 0 0)
(3.55458 0 0 0.5175133 0 0)
(3.357172 4.991362e-32 0 0.5061843 0 0)
(3.143594 0 0 0.4906093 0 0)
(2.913734 0 0 0.4704585 0 0)
(2.667488 8.783635e-32 0 0.4453832 0 0)
(2.404777 0 0 0.4150178 0 0)
(2.12562 0 0 0.3789921 0 0)
(1.830249 0 0 0.3369571 0 0)
(1.519434 4.571e-16 0 0.2886587 0 0)
(1.195358 1.763676e-16 0 0.2341378 0 0)
(0.8650497 0 0 0.1744921 0 0)
(0.5492725 0 0 0.1139039 0 0)
(0.293381 8.092618e-17 0 0.06238214 0 0)
(0.1396736 0 0 0.03038147 0 0)
(0.06870653 0 0 0.01525776 0 0)
(0.03634567 0 0 0.008224783 0 0)
(0.02023564 0 0 0.004657033 0 0)
(0.01012661 0 0 0.002364823 0 0)
(0.005939027 0 0 0.001403531 0 0)
(0.0005690293 0 0 0.0001356412 0 0)
(0.0007869235 3.281618e-19 0 0.0001884625 0 0)
(4.182874e-06 0 0 4.104042e-10 0 0)
(0.0002163977 0 0 9.65952e-08 0 0)
(0.001377777 0 0 1.400141e-06 0 0)
(0.004733977 0 0 8.281367e-06 0 0)
(0.01178631 0 0 3.056849e-05 0 0)
(0.02389386 0 0 8.377725e-05 0 0)
(0.04186787 2.874313e-36 0 0.0001865536 0 0)
(0.06580797 0 0 0.0003567959 0 0)
(0.09524659 1.389884e-20 0 0.0006089494 0 0)
(0.1323856 0 0 0.0009751173 0 0)
(0.194792 0 0 0.001623554 0 0)
(0.2684154 1.541809e-35 0 0.002501728 0 0)
(0.3534691 0 0 0.003656602 0 0)
(0.4501438 -9.510694e-35 0 0.005143995 0 0)
(0.5588023 0 0 0.007031735 0 0)
(0.6798473 3.026832e-19 0 0.00939955 0 0)
(0.8135969 0 0 0.01233811 0 0)
(0.9601652 -9.295965e-19 0 0.01594712 0 0)
(1.119362 0 0 0.02033232 0 0)
(1.290621 1.350773e-18 0 0.0256017 0 0)
(1.472973 0 0 0.03186103 0 0)
(1.665054 -3.744826e-18 0 0.03920912 0 0)
(1.865149 -4.337265e-18 0 0.04773325 0 0)
(2.071271 0 0 0.05750496 0 0)
(2.281242 5.639899e-18 0 0.06857649 0 0)
(2.49278 6.335986e-18 0 0.08097811 0 0)
(2.703589 1.410105e-17 0 0.0947162 0 0)
(2.911425 0 0 0.1097724 0 0)
(3.114158 0 0 0.1261035 0 0)
(3.309821 0 0 0.1436422 0 0)
(3.496634 0 0 0.1622991 0 0)
(3.673029 -2.111378e-17 0 0.1819643 0 0)
(3.837657 6.706561e-17 0 0.2025108 0 0)
(3.989393 0 0 0.2237984 0 0)
(4.127329 -4.909357e-17 0 0.2456763 0 0)
(4.250733 0 0 0.2679844 0 0)
(4.359033 -5.255203e-17 0 0.290554 0 0)
(4.451789 0 0 0.3132091 0 0)
(4.528671 0 0 0.3357668 0 0)
(4.589452 0 0 0.3580388 0 0)
(4.63398 0 0 0.3798319 0 0)
(4.66217 0 0 0.4009488 0 0)
(4.67399 0 0 0.4211884 0 0)
(4.669444 2.24735e-16 0 0.4403463 0 0)
(4.648573 1.112414e-16 0 0.4582152 0 0)
(4.611431 0 0 0.4745846 0 0)
(4.558088 0 0 0.4892406 0 0)
(4.488614 0 0 0.5019657 0 0)
(4.403079 -2.03871e-16 0 0.5125384 0 0)
(4.301539 -4.364585e-31 0 0.5207311 0 0)
(4.184039 0 0 0.5263107 0 0)
(4.050603 0 0 0.5290356 0 0)
(3.901234 0 0 0.5286548 0 0)
(3.735909 0 0 0.5249061 0 0)
(3.55458 0 0 0.5175133 0 0)
(3.357172 4.991362e-32 0 0.5061843 0 0)
(3.143594 0 0 0.4906093 0 0)
(2.913734 0 0 0.4704585 0 0)
(2.667488 8.783635e-32 0 0.4453832 0 0)
(2.404777 0 0 0.4150178 0 0)
(2.12562 0 0 0.3789921 0 0)
(1.830249 0 0 0.3369571 0 0)
(1.519434 4.571e-16 0 0.2886587 0 0)
(1.195358 1.763676e-16 0 0.2341378 0 0)
(0.8650497 0 0 0.1744921 0 0)
(0.5492725 0 0 0.1139039 0 0)
(0.293381 8.092618e-17 0 0.06238214 0 0)
(0.1396736 0 0 0.03038147 0 0)
(0.06870653 0 0 0.01525776 0 0)
(0.03634567 0 0 0.008224783 0 0)
(0.02023564 0 0 0.004657033 0 0)
(0.01012661 0 0 0.002364823 0 0)
(0.005939027 0 0 0.001403531 0 0)
(0.0005690293 0 0 0.0001356412 0 0)
(0.0007869235 3.281618e-19 0 0.0001884625 0 0)
)
;
    }
    wall
    {
        type            calculated;
        value           nonuniform List<symmTensor> 2((4.733677e-10 0 0 3.07689e-10 0 0) (4.733473e-10 0 0 3.076758e-10 0 0));
    }
    frontAndBack
    {
        type            empty;
    }
    middle
    {
        type            symmetryPlane;
        value           nonuniform List<symmTensor> 2((0.0007869246 0 0 0.0001884628 0 0) (0.0007869225 0 0 0.0001884623 0 0));
    }
}


// ************************************************************************* //
