/*--------------------------------*- C++ -*----------------------------------*\
| =========                 |                                                 |
| \\      /  F ield         | foam-extend: Open Source CFD                    |
|  \\    /   O peration     | Version:     4.0                                |
|   \\  /    A nd           | Web:         http://www.foam-extend.org         |
|    \\/     M anipulation  |                                                 |
\*---------------------------------------------------------------------------*/
FoamFile
{
    version     2.0;
    format      ascii;
    class       volScalarField;
    location    "100";
    object      nut;
}
// * * * * * * * * * * * * * * * * * * * * * * * * * * * * * * * * * * * * * //

dimensions      [0 2 -1 0 0 0 0];

internalField   nonuniform List<scalar> 
150
(
7.207794e-09
7.207796e-09
3.733059e-07
3.73306e-07
2.379757e-06
2.379757e-06
8.19335e-06
8.193351e-06
2.04718e-05
2.047181e-05
4.173172e-05
4.173173e-05
7.366384e-05
7.366386e-05
0.0001167452
0.0001167453
0.0001703675
0.0001703675
0.0002394533
0.0002394533
0.0003585483
0.0003585484
0.0005045366
0.0005045367
0.0006783615
0.0006783616
0.0008814698
0.00088147
0.001115696
0.001115697
0.001383137
0.001383137
0.001686049
0.001686049
0.002026784
0.002026785
0.002407739
0.002407739
0.002831311
0.002831311
0.003299868
0.003299869
0.003815715
0.003815716
0.004381065
0.004381065
0.004998013
0.004998014
0.005668515
0.005668516
0.00639437
0.006394371
0.007177204
0.007177205
0.008018463
0.008018464
0.008919413
0.008919414
0.009881143
0.009881144
0.01090458
0.01090458
0.01199051
0.01199051
0.01313963
0.01313964
0.01435261
0.01435261
0.01563009
0.01563009
0.01697273
0.01697273
0.01838113
0.01838113
0.01985582
0.01985582
0.02139729
0.0213973
0.02300595
0.02300595
0.02468213
0.02468213
0.02642611
0.02642611
0.0282381
0.0282381
0.03011829
0.03011829
0.03206679
0.03206679
0.03408374
0.03408374
0.03616923
0.03616923
0.0383234
0.0383234
0.04054641
0.04054641
0.04283846
0.04283846
0.04519984
0.04519984
0.04763089
0.04763089
0.05013205
0.05013205
0.05270381
0.05270381
0.05534669
0.05534669
0.05806119
0.05806119
0.06084767
0.06084766
0.0637062
0.06370619
0.06663632
0.06663632
0.06963669
0.06963669
0.07270452
0.07270451
0.07583474
0.07583474
0.07901876
0.07901876
0.08224234
0.08224234
0.085482
0.085482
0.08869815
0.08869815
0.09182069
0.09182069
0.09489325
0.09489325
0.09797285
0.09797285
0.1010905
0.1010905
0.1042278
0.1042278
0.1072896
0.1072896
0.1100801
0.1100801
0.1122991
0.1122991
0.1135805
0.1135804
)
;

boundaryField
{
    leftandright
    {
        type            cyclic;
        value           nonuniform List<scalar> 
150
(
7.207795e-09
3.73306e-07
2.379757e-06
8.19335e-06
2.047181e-05
4.173173e-05
7.366385e-05
0.0001167453
0.0001703675
0.0002394533
0.0003585483
0.0005045366
0.0006783615
0.0008814699
0.001115697
0.001383137
0.001686049
0.002026785
0.002407739
0.002831311
0.003299868
0.003815715
0.004381065
0.004998013
0.005668516
0.00639437
0.007177204
0.008018463
0.008919414
0.009881143
0.01090458
0.01199051
0.01313964
0.01435261
0.01563009
0.01697273
0.01838113
0.01985582
0.0213973
0.02300595
0.02468213
0.02642611
0.0282381
0.03011829
0.03206679
0.03408374
0.03616923
0.0383234
0.04054641
0.04283846
0.04519984
0.04763089
0.05013205
0.05270381
0.05534669
0.05806119
0.06084766
0.06370619
0.06663632
0.06963669
0.07270451
0.07583474
0.07901876
0.08224234
0.085482
0.08869815
0.09182069
0.09489325
0.09797285
0.1010905
0.1042278
0.1072896
0.1100801
0.1122991
0.1135805
7.207795e-09
3.73306e-07
2.379757e-06
8.19335e-06
2.047181e-05
4.173173e-05
7.366385e-05
0.0001167453
0.0001703675
0.0002394533
0.0003585483
0.0005045366
0.0006783615
0.0008814699
0.001115697
0.001383137
0.001686049
0.002026785
0.002407739
0.002831311
0.003299868
0.003815715
0.004381065
0.004998013
0.005668516
0.00639437
0.007177204
0.008018463
0.008919414
0.009881143
0.01090458
0.01199051
0.01313964
0.01435261
0.01563009
0.01697273
0.01838113
0.01985582
0.0213973
0.02300595
0.02468213
0.02642611
0.0282381
0.03011829
0.03206679
0.03408374
0.03616923
0.0383234
0.04054641
0.04283846
0.04519984
0.04763089
0.05013205
0.05270381
0.05534669
0.05806119
0.06084766
0.06370619
0.06663632
0.06963669
0.07270451
0.07583474
0.07901876
0.08224234
0.085482
0.08869815
0.09182069
0.09489325
0.09797285
0.1010905
0.1042278
0.1072896
0.1100801
0.1122991
0.1135805
)
;
    }
    wall
    {
        type            nutLowReWallFunction;
        Cmu             0.09;
        kappa           0.41;
        E               9.8;
        value           nonuniform List<scalar> 2(8.151179e-13 8.151179e-13);
    }
    frontAndBack
    {
        type            empty;
    }
    middle
    {
        type            symmetryPlane;
        value           nonuniform List<scalar> 2(0.1135805 0.1135804);
    }
}


// ************************************************************************* //
