/*--------------------------------*- C++ -*----------------------------------*\
| =========                 |                                                 |
| \\      /  F ield         | foam-extend: Open Source CFD                    |
|  \\    /   O peration     | Version:     4.0                                |
|   \\  /    A nd           | Web:         http://www.foam-extend.org         |
|    \\/     M anipulation  |                                                 |
\*---------------------------------------------------------------------------*/
FoamFile
{
    version     2.0;
    format      ascii;
    class       volScalarField;
    location    "100";
    object      p;
}
// * * * * * * * * * * * * * * * * * * * * * * * * * * * * * * * * * * * * * //

dimensions      [0 2 -2 0 0 0 0];

internalField   nonuniform List<scalar> 
150
(
-5.563987e-09
-0.05000017
-5.204467e-05
-0.05005215
-0.0002640713
-0.05026412
-0.0008353696
-0.05083539
-0.001994112
-0.05199413
-0.003972147
-0.05397216
-0.006984666
-0.05698467
-0.01121797
-0.06121798
-0.01682239
-0.0668224
-0.02389249
-0.0738925
-0.03244566
-0.08244567
-0.04244056
-0.09244057
-0.05381065
-0.1038107
-0.06646806
-0.1164681
-0.0802974
-0.1302974
-0.09515961
-0.1451596
-0.1108989
-0.1608989
-0.1273499
-0.1773499
-0.1443442
-0.1943442
-0.161716
-0.211716
-0.1793061
-0.2293062
-0.1969655
-0.2469655
-0.2145565
-0.2645565
-0.2319548
-0.2819548
-0.249049
-0.299049
-0.2657408
-0.3157408
-0.2819447
-0.3319447
-0.2975871
-0.3475871
-0.3126055
-0.3626055
-0.3269483
-0.3769483
-0.3405737
-0.3905737
-0.3534495
-0.4034495
-0.365553
-0.415553
-0.3768708
-0.4268709
-0.3873983
-0.4373983
-0.3971375
-0.4471375
-0.4060956
-0.4560956
-0.4142835
-0.4642835
-0.4217154
-0.4717154
-0.428408
-0.478408
-0.4343804
-0.4843804
-0.4396538
-0.4896538
-0.4442512
-0.4942512
-0.4481979
-0.4981979
-0.4515208
-0.5015208
-0.4542492
-0.5042492
-0.4564142
-0.5064142
-0.4580491
-0.5080491
-0.4591897
-0.5091897
-0.4598738
-0.5098738
-0.4601419
-0.5101419
-0.4600366
-0.5100366
-0.4596028
-0.5096028
-0.4588871
-0.5088871
-0.457938
-0.507938
-0.4568046
-0.5068046
-0.4555356
-0.5055356
-0.454178
-0.504178
-0.4527739
-0.5027739
-0.4513576
-0.5013576
-0.4499492
-0.4999492
-0.4485454
-0.4985454
-0.4471054
-0.4971054
-0.4455144
-0.4955144
-0.4434913
-0.4934913
-0.4402789
-0.4902789
-0.4346648
-0.4846648
-0.4259344
-0.4759344
-0.4150042
-0.4650042
-0.4025531
-0.4525531
-0.3923763
-0.4423763
-0.3766301
-0.4266301
-0.3838659
-0.4338659
-0.3247857
-0.3747857
-0.4679346
-0.5179346
)
;

boundaryField
{
    leftandright
    {
        type            fan;
        patchType       cyclic;
        f               1(-0.1);
        value           nonuniform List<scalar> 
150
(
0.02499991
0.0249479
0.0247359
0.02416462
0.02300588
0.02102785
0.01801533
0.01378203
0.008177606
0.001107507
-0.007445664
-0.01744057
-0.02881066
-0.04146806
-0.0552974
-0.07015962
-0.0858989
-0.1023499
-0.1193442
-0.136716
-0.1543062
-0.1719655
-0.1895565
-0.2069548
-0.224049
-0.2407408
-0.2569447
-0.2725871
-0.2876055
-0.3019483
-0.3155737
-0.3284495
-0.340553
-0.3518708
-0.3623983
-0.3721375
-0.3810956
-0.3892835
-0.3967154
-0.403408
-0.4093804
-0.4146538
-0.4192512
-0.4231979
-0.4265208
-0.4292492
-0.4314142
-0.4330491
-0.4341897
-0.4348738
-0.4351419
-0.4350366
-0.4346028
-0.4338871
-0.432938
-0.4318046
-0.4305356
-0.429178
-0.4277739
-0.4263576
-0.4249492
-0.4235454
-0.4221054
-0.4205144
-0.4184913
-0.4152789
-0.4096648
-0.4009344
-0.3900042
-0.3775531
-0.3673763
-0.3516301
-0.3588659
-0.2997857
-0.4429346
-0.07500009
-0.0750521
-0.0752641
-0.07583538
-0.07699412
-0.07897215
-0.08198467
-0.08621797
-0.09182239
-0.09889249
-0.1074457
-0.1174406
-0.1288107
-0.1414681
-0.1552974
-0.1701596
-0.1858989
-0.2023499
-0.2193442
-0.236716
-0.2543062
-0.2719655
-0.2895565
-0.3069548
-0.324049
-0.3407408
-0.3569447
-0.3725871
-0.3876055
-0.4019483
-0.4155737
-0.4284495
-0.440553
-0.4518708
-0.4623983
-0.4721375
-0.4810956
-0.4892835
-0.4967154
-0.503408
-0.5093804
-0.5146538
-0.5192512
-0.5231979
-0.5265208
-0.5292492
-0.5314142
-0.5330491
-0.5341897
-0.5348738
-0.5351419
-0.5350366
-0.5346028
-0.5338871
-0.532938
-0.5318046
-0.5305356
-0.529178
-0.5277739
-0.5263576
-0.5249492
-0.5235454
-0.5221054
-0.5205144
-0.5184913
-0.5152789
-0.5096648
-0.5009344
-0.4900042
-0.4775531
-0.4673763
-0.4516301
-0.4588659
-0.3997857
-0.5429346
)
;
    }
    wall
    {
        type            zeroGradient;
    }
    frontAndBack
    {
        type            empty;
    }
    middle
    {
        type            symmetryPlane;
        value           nonuniform List<scalar> 2(-0.4679346 -0.5179346);
    }
}


// ************************************************************************* //
