/*--------------------------------*- C++ -*----------------------------------*\
| =========                 |                                                 |
| \\      /  F ield         | foam-extend: Open Source CFD                    |
|  \\    /   O peration     | Version:     4.0                                |
|   \\  /    A nd           | Web:         http://www.foam-extend.org         |
|    \\/     M anipulation  |                                                 |
\*---------------------------------------------------------------------------*/
FoamFile
{
    version     2.0;
    format      ascii;
    class       surfaceScalarField;
    location    "100";
    object      phi;
}
// * * * * * * * * * * * * * * * * * * * * * * * * * * * * * * * * * * * * * //

dimensions      [0 3 -1 0 0 0 0];

internalField   nonuniform List<scalar> 
223
(
3.291745e-05
6.281596e-12
1.597785e-13
0.0001054713
6.22611e-12
3.501436e-13
0.0001890171
6.264014e-12
4.625227e-13
0.0002847563
6.334818e-12
5.189175e-13
0.000393896
6.411069e-12
5.495528e-13
0.0005176063
6.486775e-12
5.687339e-13
0.0006570022
6.565495e-12
5.804156e-13
0.0008131606
6.652836e-12
5.915814e-13
0.0009871682
6.757066e-12
6.176688e-13
0.001180006
6.877998e-12
6.686619e-13
0.001391515
6.999312e-12
7.393216e-13
0.001621059
7.099104e-12
8.191369e-13
0.001868652
7.160104e-12
9.002203e-13
0.002134315
7.16917e-12
9.773477e-13
0.002418106
7.116152e-12
1.048904e-12
0.002720134
6.997153e-12
1.115959e-12
0.003040586
6.816978e-12
1.181385e-12
0.003379739
6.585521e-12
1.25198e-12
0.003737981
6.314448e-12
1.339193e-12
0.004115815
6.01823e-12
1.455086e-12
0.004513872
5.718003e-12
1.604837e-12
0.004932912
5.430457e-12
1.794607e-12
0.005373825
5.160476e-12
2.036276e-12
0.005837634
4.92529e-12
2.321419e-12
0.00632549
4.745481e-12
2.629271e-12
0.006838674
4.613327e-12
2.958079e-12
0.007378591
4.506789e-12
3.311653e-12
0.007946774
4.415998e-12
3.674365e-12
0.008544877
4.354203e-12
4.002302e-12
0.00917468
4.335758e-12
4.249225e-12
0.009838087
4.33889e-12
4.406951e-12
0.01053713
4.33744e-12
4.476813e-12
0.01127395
4.328754e-12
4.446823e-12
0.01205085
4.283623e-12
4.343805e-12
0.01287024
4.158223e-12
4.222463e-12
0.01373466
3.869191e-12
4.190274e-12
0.01464682
3.423967e-12
4.275939e-12
0.01560954
3.159168e-12
4.185297e-12
0.01662581
3.260636e-12
3.774035e-12
0.01769877
3.400939e-12
3.407058e-12
0.01883175
3.429471e-12
3.258509e-12
0.02002822
3.524753e-12
3.155228e-12
0.02129185
3.583022e-12
3.187857e-12
0.02262649
3.517445e-12
3.40963e-12
0.0240362
3.426365e-12
3.676203e-12
0.02552522
3.280748e-12
3.964816e-12
0.02709804
3.100152e-12
4.208544e-12
0.02875932
2.917816e-12
4.344333e-12
0.03051399
2.75193e-12
4.34779e-12
0.03236719
2.668649e-12
4.175246e-12
0.03432429
2.788488e-12
3.757358e-12
0.03639093
3.026404e-12
3.249569e-12
0.03857297
2.989363e-12
3.121683e-12
0.04087653
2.755232e-12
3.361574e-12
0.04330798
2.636404e-12
3.690792e-12
0.04587393
2.753966e-12
3.976917e-12
0.04858126
3.230178e-12
4.036018e-12
0.05143705
3.796526e-12
4.031244e-12
0.05444866
4.144087e-12
4.141104e-12
0.05762364
4.234049e-12
4.274532e-12
0.06096978
4.294864e-12
4.10566e-12
0.06449503
4.297106e-12
3.630131e-12
0.06820753
3.96663e-12
3.171354e-12
0.07211554
3.685066e-12
2.482181e-12
0.07622734
3.406727e-12
1.812649e-12
0.08055099
2.586125e-12
1.932879e-12
0.08509379
1.632722e-12
2.543854e-12
0.08986142
1.299644e-12
2.691788e-12
0.094858
1.301042e-12
2.072966e-12
0.100087
8.18953e-13
9.191305e-13
0.1055513
-2.879833e-13
-2.905479e-13
0.1112531
-1.229238e-13
-4.694005e-13
0.1171932
-2.413365e-13
-1.058588e-13
0.1233706
-4.002142e-13
-4.093549e-13
0.1297809
)
;

boundaryField
{
    leftandright
    {
        type            cyclic;
        value           nonuniform List<scalar> 
150
(
-3.291745e-05
-0.0001054713
-0.0001890171
-0.0002847563
-0.000393896
-0.0005176063
-0.0006570022
-0.0008131606
-0.0009871682
-0.001180006
-0.001391515
-0.001621059
-0.001868652
-0.002134315
-0.002418106
-0.002720134
-0.003040586
-0.003379739
-0.003737981
-0.004115815
-0.004513872
-0.004932912
-0.005373825
-0.005837634
-0.00632549
-0.006838674
-0.007378591
-0.007946774
-0.008544877
-0.00917468
-0.009838087
-0.01053713
-0.01127395
-0.01205085
-0.01287024
-0.01373466
-0.01464682
-0.01560954
-0.01662581
-0.01769877
-0.01883175
-0.02002822
-0.02129185
-0.02262649
-0.0240362
-0.02552522
-0.02709804
-0.02875932
-0.03051399
-0.03236719
-0.03432429
-0.03639093
-0.03857297
-0.04087653
-0.04330798
-0.04587393
-0.04858126
-0.05143705
-0.05444866
-0.05762364
-0.06096978
-0.06449503
-0.06820753
-0.07211554
-0.07622734
-0.08055099
-0.08509379
-0.08986142
-0.094858
-0.100087
-0.1055513
-0.1112531
-0.1171932
-0.1233706
-0.1297809
3.291745e-05
0.0001054713
0.0001890171
0.0002847563
0.000393896
0.0005176063
0.0006570022
0.0008131606
0.0009871682
0.001180006
0.001391515
0.001621059
0.001868652
0.002134315
0.002418106
0.002720134
0.003040586
0.003379739
0.003737981
0.004115815
0.004513872
0.004932912
0.005373825
0.005837634
0.00632549
0.006838674
0.007378591
0.007946774
0.008544877
0.00917468
0.009838087
0.01053713
0.01127395
0.01205085
0.01287024
0.01373466
0.01464682
0.01560954
0.01662581
0.01769877
0.01883175
0.02002822
0.02129185
0.02262649
0.0240362
0.02552522
0.02709804
0.02875932
0.03051399
0.03236719
0.03432429
0.03639093
0.03857297
0.04087653
0.04330798
0.04587393
0.04858126
0.05143705
0.05444866
0.05762364
0.06096978
0.06449503
0.06820753
0.07211554
0.07622734
0.08055099
0.08509379
0.08986142
0.094858
0.100087
0.1055513
0.1112531
0.1171932
0.1233706
0.1297809
)
;
    }
    wall
    {
        type            calculated;
        value           uniform 0;
    }
    frontAndBack
    {
        type            empty;
    }
    middle
    {
        type            symmetryPlane;
        value           uniform 0;
    }
}


// ************************************************************************* //
