/*--------------------------------*- C++ -*----------------------------------*\
| =========                 |                                                 |
| \\      /  F ield         | foam-extend: Open Source CFD                    |
|  \\    /   O peration     | Version:     4.0                                |
|   \\  /    A nd           | Web:         http://www.foam-extend.org         |
|    \\/     M anipulation  |                                                 |
\*---------------------------------------------------------------------------*/
FoamFile
{
    version     2.0;
    format      ascii;
    class       volScalarField;
    location    "100";
    object      QR;
}
// * * * * * * * * * * * * * * * * * * * * * * * * * * * * * * * * * * * * * //

dimensions      [0 0 -1 0 0 0 0];

internalField   nonuniform List<scalar> 
150
(
424.2327
424.2333
423.5458
423.5461
422.4863
422.4865
420.6759
420.6758
417.6738
417.6736
413.1003
413.1001
406.7589
406.7588
398.6959
398.6958
388.9353
388.9352
376.1622
376.1621
359.1885
359.1885
339.3866
339.3866
318.3873
318.3873
296.7937
296.7937
275.1169
275.1169
253.7767
253.7767
233.1064
233.1063
213.3586
213.3586
194.7128
194.7128
177.2833
177.2833
161.1298
161.1298
146.2672
146.2672
132.6753
132.6753
120.3083
120.3083
109.102
109.102
98.98076
98.98076
89.86255
89.86255
81.66323
81.66323
74.29941
74.29941
67.69065
67.69065
61.76087
61.76087
56.43915
56.43915
51.66018
51.66018
47.36437
47.36437
43.49782
43.49782
40.01223
40.01223
36.86462
36.86462
34.01692
34.01692
31.43549
31.43549
29.09066
29.09066
26.95627
26.95627
25.00925
25.00925
23.22927
23.22927
21.59837
21.59837
20.1007
20.1007
18.72224
18.72224
17.45058
17.45058
16.27471
16.27471
15.18486
15.18486
14.17236
14.17236
13.22949
13.22949
12.34936
12.34936
11.52585
11.52585
10.75348
10.75349
10.0274
10.0274
9.343234
9.343234
8.697116
8.697116
8.085587
8.085587
7.50557
7.50557
6.954326
6.954326
6.42941
6.42941
5.928615
5.928615
5.449864
5.449864
4.990904
4.990904
4.548463
4.548463
4.116894
4.116894
3.687212
3.687212
3.251412
3.251412
2.809267
2.809266
2.366238
2.366238
1.927061
1.927061
1.494022
1.494022
1.068323
1.068323
0.6498356
0.6498356
0.221568
0.2215679
)
;

boundaryField
{
    leftandright
    {
        type            cyclic;
        value           nonuniform List<scalar> 
150
(
424.233
423.5459
422.4864
420.6758
417.6737
413.1002
406.7588
398.6958
388.9353
376.1621
359.1885
339.3866
318.3873
296.7937
275.1169
253.7767
233.1063
213.3586
194.7128
177.2833
161.1298
146.2672
132.6753
120.3083
109.102
98.98076
89.86255
81.66323
74.29941
67.69065
61.76087
56.43915
51.66018
47.36437
43.49782
40.01223
36.86462
34.01692
31.43549
29.09066
26.95627
25.00925
23.22927
21.59837
20.1007
18.72224
17.45058
16.27471
15.18486
14.17236
13.22949
12.34936
11.52585
10.75349
10.0274
9.343234
8.697116
8.085587
7.50557
6.954326
6.42941
5.928615
5.449864
4.990904
4.548463
4.116894
3.687212
3.251412
2.809267
2.366238
1.927061
1.494022
1.068323
0.6498356
0.221568
424.233
423.5459
422.4864
420.6758
417.6737
413.1002
406.7588
398.6958
388.9353
376.1621
359.1885
339.3866
318.3873
296.7937
275.1169
253.7767
233.1063
213.3586
194.7128
177.2833
161.1298
146.2672
132.6753
120.3083
109.102
98.98076
89.86255
81.66323
74.29941
67.69065
61.76087
56.43915
51.66018
47.36437
43.49782
40.01223
36.86462
34.01692
31.43549
29.09066
26.95627
25.00925
23.22927
21.59837
20.1007
18.72224
17.45058
16.27471
15.18486
14.17236
13.22949
12.34936
11.52585
10.75349
10.0274
9.343234
8.697116
8.085587
7.50557
6.954326
6.42941
5.928615
5.449864
4.990904
4.548463
4.116894
3.687212
3.251412
2.809267
2.366238
1.927061
1.494022
1.068323
0.6498356
0.221568
)
;
    }
    wall
    {
        type            calculated;
        value           nonuniform List<scalar> 2(424.5232 424.5238);
    }
    frontAndBack
    {
        type            empty;
    }
    middle
    {
        type            symmetryPlane;
        value           nonuniform List<scalar> 2(0.4682736 0.4682736);
    }
}


// ************************************************************************* //
