/*--------------------------------*- C++ -*----------------------------------*\
| =========                 |                                                 |
| \\      /  F ield         | foam-extend: Open Source CFD                    |
|  \\    /   O peration     | Version:     4.0                                |
|   \\  /    A nd           | Web:         http://www.foam-extend.org         |
|    \\/     M anipulation  |                                                 |
\*---------------------------------------------------------------------------*/
FoamFile
{
    version     2.0;
    format      ascii;
    class       volSymmTensorField;
    location    "100";
    object      RStress;
}
// * * * * * * * * * * * * * * * * * * * * * * * * * * * * * * * * * * * * * //

dimensions      [0 2 -2 0 0 0 0];

internalField   nonuniform List<symmTensor> 
150
(
(0.0110879 -3.057782e-06 0 8.525461e-07 0 0.0002081217)
(0.0110879 -3.057787e-06 0 8.525463e-07 0 0.000208126)
(0.118361 -0.0001581121 0 4.141691e-05 0 0.002223284)
(0.118361 -0.0001581123 0 4.141692e-05 0 0.002223322)
(0.3112943 -0.001005415 0 0.0002494316 0 0.007543527)
(0.3112944 -0.001005415 0 0.0002494317 0 0.007543528)
(0.5894439 -0.003446744 0 0.0008195249 0 0.01875179)
(0.5894439 -0.003446745 0 0.0008195251 0 0.01875179)
(0.9534983 -0.008550536 0 0.001980002 0 0.03695964)
(0.9534983 -0.008550535 0 0.001980002 0 0.03695965)
(1.402692 -0.01723939 0 0.003964652 0 0.06326547)
(1.402692 -0.01723938 0 0.003964652 0 0.06326548)
(1.934039 -0.02996342 0 0.006990489 0 0.09841299)
(1.934039 -0.02996342 0 0.00699049 0 0.09841301)
(2.541805 -0.04654585 0 0.0112438 0 0.142787)
(2.541805 -0.04654585 0 0.0112438 0 0.142787)
(3.217833 -0.06626192 0 0.01687547 0 0.1964535)
(3.217834 -0.06626193 0 0.01687547 0 0.1964536)
(3.951824 -0.09007327 0 0.02399628 0 0.2591753)
(3.951825 -0.09007328 0 0.02399629 0 0.2591754)
(4.725699 -0.1287864 0 0.03262344 0 0.3299595)
(4.7257 -0.1287865 0 0.03262344 0 0.3299596)
(5.506988 -0.1712329 0 0.04270645 0 0.4069531)
(5.506988 -0.171233 0 0.04270646 0 0.4069532)
(6.267769 -0.2159817 0 0.05419448 0 0.4883982)
(6.26777 -0.2159817 0 0.05419449 0 0.4883983)
(6.983084 -0.2616147 0 0.06700447 0 0.5724376)
(6.983085 -0.2616148 0 0.06700448 0 0.5724377)
(7.632625 -0.306947 0 0.08102675 0 0.6572358)
(7.632625 -0.306947 0 0.08102677 0 0.6572358)
(8.201603 -0.3510078 0 0.09612965 0 0.741082)
(8.201603 -0.3510079 0 0.09612967 0 0.7410821)
(8.6809 -0.3930287 0 0.1121661 0 0.8224682)
(8.680901 -0.3930287 0 0.1121661 0 0.8224683)
(9.06666 -0.432432 0 0.1289806 0 0.9001381)
(9.06666 -0.432432 0 0.1289806 0 0.9001382)
(9.359501 -0.4688175 0 0.146415 0 0.9731085)
(9.359501 -0.4688176 0 0.146415 0 0.9731086)
(9.563551 -0.5019441 0 0.1643143 0 1.040667)
(9.563551 -0.5019442 0 0.1643143 0 1.040667)
(9.685444 -0.5317071 0 0.1825299 0 1.10235)
(9.685445 -0.5317071 0 0.1825299 0 1.10235)
(9.733396 -0.5581138 0 0.2009224 0 1.157915)
(9.733397 -0.5581139 0 0.2009225 0 1.157915)
(9.716413 -0.5812592 0 0.2193633 0 1.207298)
(9.716413 -0.5812593 0 0.2193634 0 1.207298)
(9.643675 -0.6013026 0 0.2377353 0 1.250582)
(9.643675 -0.6013027 0 0.2377353 0 1.250582)
(9.524079 -0.6184465 0 0.2559323 0 1.287954)
(9.524079 -0.6184466 0 0.2559323 0 1.287954)
(9.365938 -0.6329196 0 0.2738594 0 1.31968)
(9.365938 -0.6329197 0 0.2738594 0 1.31968)
(9.176792 -0.6449618 0 0.2914317 0 1.346075)
(9.176792 -0.6449619 0 0.2914317 0 1.346075)
(8.963326 -0.6548136 0 0.308574 0 1.367482)
(8.963327 -0.6548137 0 0.308574 0 1.367482)
(8.731352 -0.6627071 0 0.3252198 0 1.384255)
(8.731352 -0.6627072 0 0.3252198 0 1.384255)
(8.485833 -0.668861 0 0.3413107 0 1.396748)
(8.485833 -0.6688611 0 0.3413108 0 1.396748)
(8.230949 -0.6734763 0 0.3567963 0 1.405306)
(8.230949 -0.6734763 0 0.3567963 0 1.405306)
(7.970169 -0.6767342 0 0.3716334 0 1.410262)
(7.970169 -0.6767343 0 0.3716335 0 1.410262)
(7.706333 -0.6787959 0 0.3857869 0 1.411927)
(7.706334 -0.678796 0 0.3857869 0 1.411927)
(7.441737 -0.6798021 0 0.3992292 0 1.410599)
(7.441737 -0.6798022 0 0.3992292 0 1.410599)
(7.178208 -0.6798748 0 0.4119407 0 1.406554)
(7.178208 -0.6798749 0 0.4119408 0 1.406554)
(6.917187 -0.6791167 0 0.4239075 0 1.400047)
(6.917187 -0.6791168 0 0.4239076 0 1.400047)
(6.659797 -0.6776132 0 0.4351198 0 1.391312)
(6.659797 -0.6776133 0 0.4351199 0 1.391312)
(6.406896 -0.6754339 0 0.445571 0 1.380561)
(6.406896 -0.675434 0 0.445571 0 1.380561)
(6.15913 -0.6726345 0 0.4552567 0 1.367987)
(6.15913 -0.6726345 0 0.4552568 0 1.367987)
(5.916971 -0.6692583 0 0.4641751 0 1.353762)
(5.916971 -0.6692583 0 0.4641751 0 1.353762)
(5.680752 -0.6653381 0 0.4723256 0 1.338043)
(5.680752 -0.6653381 0 0.4723256 0 1.338043)
(5.450693 -0.6608971 0 0.4797097 0 1.320972)
(5.450693 -0.6608971 0 0.4797097 0 1.320972)
(5.226925 -0.6559504 0 0.4863305 0 1.302677)
(5.226925 -0.6559504 0 0.4863305 0 1.302677)
(5.009509 -0.6505058 0 0.4921924 0 1.283277)
(5.009509 -0.6505059 0 0.4921924 0 1.283277)
(4.798449 -0.644565 0 0.497302 0 1.262878)
(4.798449 -0.644565 0 0.497302 0 1.262878)
(4.593709 -0.638124 0 0.5016671 0 1.241578)
(4.593709 -0.638124 0 0.5016671 0 1.241578)
(4.395218 -0.6311741 0 0.5052976 0 1.219468)
(4.395218 -0.6311741 0 0.5052976 0 1.219468)
(4.202883 -0.6237022 0 0.508205 0 1.196633)
(4.202883 -0.6237022 0 0.508205 0 1.196633)
(4.016593 -0.6156917 0 0.5104029 0 1.173151)
(4.016593 -0.6156917 0 0.5104029 0 1.173151)
(3.836225 -0.6071222 0 0.5119064 0 1.149096)
(3.836225 -0.6071222 0 0.5119064 0 1.149096)
(3.661648 -0.5979707 0 0.5127325 0 1.124538)
(3.661648 -0.5979707 0 0.5127325 0 1.124538)
(3.492727 -0.588211 0 0.5128997 0 1.099542)
(3.492727 -0.5882109 0 0.5128997 0 1.099542)
(3.329326 -0.5778143 0 0.5124277 0 1.074171)
(3.329326 -0.5778143 0 0.5124277 0 1.074171)
(3.171309 -0.5667496 0 0.5113372 0 1.048483)
(3.171309 -0.5667496 0 0.5113371 0 1.048483)
(3.018541 -0.5549833 0 0.5096486 0 1.022533)
(3.018541 -0.5549833 0 0.5096486 0 1.022533)
(2.870892 -0.5424793 0 0.5073821 0 0.9963715)
(2.870892 -0.5424793 0 0.5073821 0 0.9963715)
(2.728235 -0.5291992 0 0.5045553 0 0.9700433)
(2.728235 -0.5291992 0 0.5045553 0 0.9700432)
(2.590448 -0.515102 0 0.5011822 0 0.9435872)
(2.590448 -0.515102 0 0.5011822 0 0.9435872)
(2.457412 -0.5001436 0 0.4972702 0 0.9170338)
(2.457412 -0.5001436 0 0.4972701 0 0.9170338)
(2.329019 -0.4842763 0 0.4928168 0 0.8904028)
(2.329019 -0.4842762 0 0.4928168 0 0.8904028)
(2.205168 -0.4674472 0 0.4878052 0 0.8637)
(2.205168 -0.4674471 0 0.4878052 0 0.8637)
(2.08577 -0.449595 0 0.4821979 0 0.836913)
(2.08577 -0.4495949 0 0.4821979 0 0.836913)
(1.970762 -0.4306415 0 0.4759282 0 0.8100059)
(1.970762 -0.4306415 0 0.4759282 0 0.8100059)
(1.860117 -0.4104636 0 0.4688918 0 0.7829132)
(1.860117 -0.4104636 0 0.4688918 0 0.7829132)
(1.753879 -0.3888117 0 0.4608957 0 0.7555331)
(1.753879 -0.3888117 0 0.4608957 0 0.7555331)
(1.652244 -0.3651609 0 0.4516739 0 0.7277272)
(1.652244 -0.3651609 0 0.4516739 0 0.7277271)
(1.555731 -0.3385624 0 0.4409118 0 0.6993373)
(1.555731 -0.3385623 0 0.4409118 0 0.6993373)
(1.464341 -0.308537 0 0.4290407 0 0.6707196)
(1.464341 -0.308537 0 0.4290407 0 0.6707195)
(1.378661 -0.2752318 0 0.4163049 0 0.6425157)
(1.378661 -0.2752318 0 0.4163048 0 0.6425157)
(1.299915 -0.239204 0 0.4040627 0 0.6155553)
(1.299915 -0.239204 0 0.4040627 0 0.6155553)
(1.229674 -0.200852 0 0.3905616 0 0.5907599)
(1.229674 -0.200852 0 0.3905616 0 0.5907599)
(1.169666 -0.1602775 0 0.3838945 0 0.5690744)
(1.169666 -0.1602775 0 0.3838945 0 0.5690744)
(1.121676 -0.1174287 0 0.3627197 0 0.5514273)
(1.121676 -0.1174287 0 0.3627197 0 0.5514273)
(1.087563 -0.07220604 0 0.380112 0 0.5387288)
(1.087563 -0.07220603 0 0.380112 0 0.5387288)
(1.069313 -0.02449755 0 0.353449 0 0.5318843)
(1.069313 -0.02449755 0 0.353449 0 0.5318843)
)
;

boundaryField
{
    leftandright
    {
        type            cyclic;
        value           nonuniform List<symmTensor> 
150
(
(0.0110879 -3.057784e-06 0 8.525462e-07 0 0.0002081239)
(0.118361 -0.0001581122 0 4.141692e-05 0 0.002223303)
(0.3112944 -0.001005415 0 0.0002494316 0 0.007543527)
(0.5894439 -0.003446745 0 0.000819525 0 0.01875179)
(0.9534983 -0.008550535 0 0.001980002 0 0.03695964)
(1.402692 -0.01723938 0 0.003964652 0 0.06326548)
(1.934039 -0.02996342 0 0.006990489 0 0.098413)
(2.541805 -0.04654585 0 0.0112438 0 0.142787)
(3.217833 -0.06626193 0 0.01687547 0 0.1964536)
(3.951824 -0.09007327 0 0.02399629 0 0.2591753)
(4.7257 -0.1287864 0 0.03262344 0 0.3299595)
(5.506988 -0.171233 0 0.04270646 0 0.4069531)
(6.267769 -0.2159817 0 0.05419448 0 0.4883982)
(6.983085 -0.2616147 0 0.06700448 0 0.5724376)
(7.632625 -0.306947 0 0.08102676 0 0.6572358)
(8.201603 -0.3510079 0 0.09612966 0 0.7410821)
(8.680901 -0.3930287 0 0.1121661 0 0.8224683)
(9.06666 -0.432432 0 0.1289806 0 0.9001382)
(9.359501 -0.4688176 0 0.146415 0 0.9731086)
(9.563551 -0.5019442 0 0.1643143 0 1.040667)
(9.685445 -0.5317071 0 0.1825299 0 1.10235)
(9.733396 -0.5581138 0 0.2009225 0 1.157915)
(9.716413 -0.5812593 0 0.2193633 0 1.207298)
(9.643675 -0.6013026 0 0.2377353 0 1.250582)
(9.524079 -0.6184465 0 0.2559323 0 1.287954)
(9.365938 -0.6329196 0 0.2738594 0 1.31968)
(9.176792 -0.6449619 0 0.2914317 0 1.346075)
(8.963327 -0.6548136 0 0.308574 0 1.367482)
(8.731352 -0.6627072 0 0.3252198 0 1.384255)
(8.485833 -0.6688611 0 0.3413107 0 1.396748)
(8.230949 -0.6734763 0 0.3567963 0 1.405306)
(7.970169 -0.6767343 0 0.3716335 0 1.410262)
(7.706333 -0.6787959 0 0.3857869 0 1.411927)
(7.441737 -0.6798021 0 0.3992292 0 1.410599)
(7.178208 -0.6798748 0 0.4119408 0 1.406554)
(6.917187 -0.6791168 0 0.4239076 0 1.400047)
(6.659797 -0.6776133 0 0.4351199 0 1.391312)
(6.406896 -0.6754339 0 0.445571 0 1.380561)
(6.15913 -0.6726345 0 0.4552568 0 1.367987)
(5.916971 -0.6692583 0 0.4641751 0 1.353762)
(5.680752 -0.6653381 0 0.4723256 0 1.338043)
(5.450693 -0.6608971 0 0.4797097 0 1.320972)
(5.226925 -0.6559504 0 0.4863305 0 1.302677)
(5.009509 -0.6505059 0 0.4921924 0 1.283277)
(4.798449 -0.644565 0 0.497302 0 1.262878)
(4.593709 -0.638124 0 0.5016671 0 1.241578)
(4.395218 -0.6311741 0 0.5052976 0 1.219468)
(4.202883 -0.6237022 0 0.508205 0 1.196633)
(4.016593 -0.6156917 0 0.5104029 0 1.173151)
(3.836225 -0.6071222 0 0.5119064 0 1.149096)
(3.661648 -0.5979707 0 0.5127325 0 1.124538)
(3.492727 -0.588211 0 0.5128997 0 1.099542)
(3.329326 -0.5778143 0 0.5124277 0 1.074171)
(3.171309 -0.5667496 0 0.5113371 0 1.048483)
(3.018541 -0.5549833 0 0.5096486 0 1.022533)
(2.870892 -0.5424793 0 0.5073821 0 0.9963715)
(2.728235 -0.5291992 0 0.5045553 0 0.9700432)
(2.590448 -0.515102 0 0.5011822 0 0.9435872)
(2.457412 -0.5001436 0 0.4972702 0 0.9170338)
(2.329019 -0.4842763 0 0.4928168 0 0.8904028)
(2.205168 -0.4674471 0 0.4878052 0 0.8637)
(2.08577 -0.449595 0 0.4821979 0 0.836913)
(1.970762 -0.4306415 0 0.4759282 0 0.8100059)
(1.860117 -0.4104636 0 0.4688918 0 0.7829132)
(1.753879 -0.3888117 0 0.4608957 0 0.7555331)
(1.652244 -0.3651609 0 0.4516739 0 0.7277271)
(1.555731 -0.3385623 0 0.4409118 0 0.6993373)
(1.464341 -0.308537 0 0.4290407 0 0.6707195)
(1.378661 -0.2752318 0 0.4163049 0 0.6425157)
(1.299915 -0.239204 0 0.4040627 0 0.6155553)
(1.229674 -0.200852 0 0.3905616 0 0.5907599)
(1.169666 -0.1602775 0 0.3838945 0 0.5690744)
(1.121676 -0.1174287 0 0.3627197 0 0.5514273)
(1.087563 -0.07220604 0 0.380112 0 0.5387288)
(1.069313 -0.02449755 0 0.353449 0 0.5318843)
(0.0110879 -3.057784e-06 0 8.525462e-07 0 0.0002081239)
(0.118361 -0.0001581122 0 4.141692e-05 0 0.002223303)
(0.3112944 -0.001005415 0 0.0002494316 0 0.007543527)
(0.5894439 -0.003446745 0 0.000819525 0 0.01875179)
(0.9534983 -0.008550535 0 0.001980002 0 0.03695964)
(1.402692 -0.01723938 0 0.003964652 0 0.06326548)
(1.934039 -0.02996342 0 0.006990489 0 0.098413)
(2.541805 -0.04654585 0 0.0112438 0 0.142787)
(3.217833 -0.06626193 0 0.01687547 0 0.1964536)
(3.951824 -0.09007327 0 0.02399629 0 0.2591753)
(4.7257 -0.1287864 0 0.03262344 0 0.3299595)
(5.506988 -0.171233 0 0.04270646 0 0.4069531)
(6.267769 -0.2159817 0 0.05419448 0 0.4883982)
(6.983085 -0.2616147 0 0.06700448 0 0.5724376)
(7.632625 -0.306947 0 0.08102676 0 0.6572358)
(8.201603 -0.3510079 0 0.09612966 0 0.7410821)
(8.680901 -0.3930287 0 0.1121661 0 0.8224683)
(9.06666 -0.432432 0 0.1289806 0 0.9001382)
(9.359501 -0.4688176 0 0.146415 0 0.9731086)
(9.563551 -0.5019442 0 0.1643143 0 1.040667)
(9.685445 -0.5317071 0 0.1825299 0 1.10235)
(9.733396 -0.5581138 0 0.2009225 0 1.157915)
(9.716413 -0.5812593 0 0.2193633 0 1.207298)
(9.643675 -0.6013026 0 0.2377353 0 1.250582)
(9.524079 -0.6184465 0 0.2559323 0 1.287954)
(9.365938 -0.6329196 0 0.2738594 0 1.31968)
(9.176792 -0.6449619 0 0.2914317 0 1.346075)
(8.963327 -0.6548136 0 0.308574 0 1.367482)
(8.731352 -0.6627072 0 0.3252198 0 1.384255)
(8.485833 -0.6688611 0 0.3413107 0 1.396748)
(8.230949 -0.6734763 0 0.3567963 0 1.405306)
(7.970169 -0.6767343 0 0.3716335 0 1.410262)
(7.706333 -0.6787959 0 0.3857869 0 1.411927)
(7.441737 -0.6798021 0 0.3992292 0 1.410599)
(7.178208 -0.6798748 0 0.4119408 0 1.406554)
(6.917187 -0.6791168 0 0.4239076 0 1.400047)
(6.659797 -0.6776133 0 0.4351199 0 1.391312)
(6.406896 -0.6754339 0 0.445571 0 1.380561)
(6.15913 -0.6726345 0 0.4552568 0 1.367987)
(5.916971 -0.6692583 0 0.4641751 0 1.353762)
(5.680752 -0.6653381 0 0.4723256 0 1.338043)
(5.450693 -0.6608971 0 0.4797097 0 1.320972)
(5.226925 -0.6559504 0 0.4863305 0 1.302677)
(5.009509 -0.6505059 0 0.4921924 0 1.283277)
(4.798449 -0.644565 0 0.497302 0 1.262878)
(4.593709 -0.638124 0 0.5016671 0 1.241578)
(4.395218 -0.6311741 0 0.5052976 0 1.219468)
(4.202883 -0.6237022 0 0.508205 0 1.196633)
(4.016593 -0.6156917 0 0.5104029 0 1.173151)
(3.836225 -0.6071222 0 0.5119064 0 1.149096)
(3.661648 -0.5979707 0 0.5127325 0 1.124538)
(3.492727 -0.588211 0 0.5128997 0 1.099542)
(3.329326 -0.5778143 0 0.5124277 0 1.074171)
(3.171309 -0.5667496 0 0.5113371 0 1.048483)
(3.018541 -0.5549833 0 0.5096486 0 1.022533)
(2.870892 -0.5424793 0 0.5073821 0 0.9963715)
(2.728235 -0.5291992 0 0.5045553 0 0.9700432)
(2.590448 -0.515102 0 0.5011822 0 0.9435872)
(2.457412 -0.5001436 0 0.4972702 0 0.9170338)
(2.329019 -0.4842763 0 0.4928168 0 0.8904028)
(2.205168 -0.4674471 0 0.4878052 0 0.8637)
(2.08577 -0.449595 0 0.4821979 0 0.836913)
(1.970762 -0.4306415 0 0.4759282 0 0.8100059)
(1.860117 -0.4104636 0 0.4688918 0 0.7829132)
(1.753879 -0.3888117 0 0.4608957 0 0.7555331)
(1.652244 -0.3651609 0 0.4516739 0 0.7277271)
(1.555731 -0.3385623 0 0.4409118 0 0.6993373)
(1.464341 -0.308537 0 0.4290407 0 0.6707195)
(1.378661 -0.2752318 0 0.4163049 0 0.6425157)
(1.299915 -0.239204 0 0.4040627 0 0.6155553)
(1.229674 -0.200852 0 0.3905616 0 0.5907599)
(1.169666 -0.1602775 0 0.3838945 0 0.5690744)
(1.121676 -0.1174287 0 0.3627197 0 0.5514273)
(1.087563 -0.07220604 0 0.380112 0 0.5387288)
(1.069313 -0.02449755 0 0.353449 0 0.5318843)
)
;
    }
    wall
    {
        type            calculated;
        value           nonuniform List<symmTensor> 2((3.333333e-11 -3.460365e-10 0 9.999145e-11 0 6.666667e-11) (3.333333e-11 -3.460369e-10 0 9.999145e-11 0 6.666667e-11));
    }
    frontAndBack
    {
        type            empty;
    }
    middle
    {
        type            symmetryPlane;
        value           nonuniform List<symmTensor> 2((1.069313 0 0 0.4566669 0 0.5318843) (1.069313 0 0 0.4566669 0 0.5318843));
    }
}


// ************************************************************************* //
