/*--------------------------------*- C++ -*----------------------------------*\
| =========                 |                                                 |
| \\      /  F ield         | foam-extend: Open Source CFD                    |
|  \\    /   O peration     | Version:     4.0                                |
|   \\  /    A nd           | Web:         http://www.foam-extend.org         |
|    \\/     M anipulation  |                                                 |
\*---------------------------------------------------------------------------*/
FoamFile
{
    version     2.0;
    format      ascii;
    class       volSymmTensorField;
    location    "100";
    object      tauP;
}
// * * * * * * * * * * * * * * * * * * * * * * * * * * * * * * * * * * * * * //

dimensions      [0 2 -2 0 0 0 0];

internalField   nonuniform List<symmTensor> 
150
(
(2.096611 0.0325342 0 5.827153e-06 0 2.199065e-06)
(2.096539 0.03253197 0 5.674993e-06 0 2.190056e-06)
(2.095035 0.03253334 0 6.277852e-06 0 2.131928e-06)
(2.094976 0.03253164 0 6.195675e-06 0 2.125545e-06)
(2.092227 0.03254354 0 7.741387e-06 0 2.166855e-06)
(2.092187 0.03254252 0 7.715605e-06 0 2.164019e-06)
(2.087756 0.03256844 0 1.071687e-05 0 2.244437e-06)
(2.087733 0.03256795 0 1.071339e-05 0 2.244211e-06)
(2.080883 0.03261099 0 1.591436e-05 0 2.221697e-06)
(2.080873 0.03261082 0 1.59167e-05 0 2.222674e-06)
(2.071129 0.03268294 0 2.452438e-05 0 2.02248e-06)
(2.071127 0.03268295 0 2.45296e-05 0 2.02372e-06)
(2.058722 0.03281182 0 3.834325e-05 0 1.754485e-06)
(2.058724 0.03281193 0 3.835067e-05 0 1.755604e-06)
(2.044552 0.03304126 0 5.980564e-05 0 1.716525e-06)
(2.044557 0.03304142 0 5.981445e-05 0 1.717466e-06)
(2.028916 0.03341465 0 9.192908e-05 0 2.088942e-06)
(2.028922 0.03341484 0 9.19384e-05 0 2.089759e-06)
(2.008976 0.03393412 0 0.000138168 0 2.1646e-06)
(2.008983 0.03393431 0 0.0001381772 0 2.165356e-06)
(1.982369 0.03460286 0 0.0002039518 0 1.268713e-06)
(1.982375 0.03460304 0 0.0002039609 0 1.269453e-06)
(1.951631 0.03548041 0 0.0002929009 0 -1.000667e-07)
(1.951637 0.03548059 0 0.0002929097 0 -9.93237e-08)
(1.921435 0.03665205 0 0.0004103467 0 -1.036421e-06)
(1.92144 0.03665222 0 0.0004103556 0 -1.035657e-06)
(1.893645 0.03815736 0 0.00056186 0 -1.462553e-06)
(1.893649 0.03815751 0 0.0005618694 0 -1.461762e-06)
(1.868815 0.04001638 0 0.0007538925 0 -1.519574e-06)
(1.86882 0.04001653 0 0.0007539023 0 -1.518778e-06)
(1.846882 0.04223986 0 0.0009940345 0 -1.357285e-06)
(1.846886 0.04224001 0 0.0009940445 0 -1.356505e-06)
(1.827451 0.044831 0 0.001291004 0 -1.086329e-06)
(1.827455 0.04483115 0 0.001291016 0 -1.085542e-06)
(1.809932 0.04778402 0 0.001654478 0 -7.810289e-07)
(1.809936 0.04778417 0 0.00165449 0 -7.802241e-07)
(1.793614 0.05108232 0 0.002094796 0 -4.898882e-07)
(1.793617 0.05108247 0 0.002094809 0 -4.890845e-07)
(1.777741 0.05469759 0 0.002622583 0 -2.425479e-07)
(1.777743 0.05469773 0 0.002622597 0 -2.417817e-07)
(1.761585 0.05859004 0 0.003248318 0 -5.343304e-08)
(1.761587 0.05859018 0 0.003248332 0 -5.27117e-08)
(1.744508 0.06270976 0 0.003981849 0 7.492633e-08)
(1.74451 0.0627099 0 0.003981867 0 7.562895e-08)
(1.725999 0.06699898 0 0.004831935 0 1.485253e-07)
(1.726001 0.06699909 0 0.00483195 0 1.491476e-07)
(1.705699 0.07139477 0 0.005805815 0 1.781105e-07)
(1.705701 0.07139487 0 0.00580583 0 1.787569e-07)
(1.683397 0.07583187 0 0.006908841 0 1.761019e-07)
(1.683398 0.07583198 0 0.006908859 0 1.766697e-07)
(1.659015 0.08024535 0 0.0081442 0 1.54029e-07)
(1.659016 0.08024544 0 0.008144218 0 1.545095e-07)
(1.632586 0.08457283 0 0.009512709 0 1.214358e-07)
(1.632587 0.0845729 0 0.009512725 0 1.218544e-07)
(1.604226 0.08875624 0 0.01101271 0 8.518616e-08)
(1.604227 0.0887563 0 0.01101273 0 8.558156e-08)
(1.574104 0.09274322 0 0.01264008 0 4.999669e-08)
(1.574105 0.09274326 0 0.01264009 0 5.032768e-08)
(1.542423 0.0964878 0 0.01438825 0 1.861295e-08)
(1.542424 0.09648787 0 0.01438826 0 1.900308e-08)
(1.509397 0.09995104 0 0.01624843 0 -7.478358e-09)
(1.509398 0.0999511 0 0.01624845 0 -7.054838e-09)
(1.475238 0.1031009 0 0.01820978 0 -2.80195e-08)
(1.475239 0.1031009 0 0.01820979 0 -2.752971e-08)
(1.440145 0.1059121 0 0.0202597 0 -4.322188e-08)
(1.440146 0.1059122 0 0.02025972 0 -4.282094e-08)
(1.404298 0.1083662 0 0.02238422 0 -5.382753e-08)
(1.404299 0.1083662 0 0.02238423 0 -5.344695e-08)
(1.367855 0.1104504 0 0.02456829 0 -6.045898e-08)
(1.367855 0.1104504 0 0.0245683 0 -6.015605e-08)
(1.330949 0.1121571 0 0.02679587 0 -6.379334e-08)
(1.330949 0.1121571 0 0.02679588 0 -6.35915e-08)
(1.293689 0.1134826 0 0.0290501 0 -6.486586e-08)
(1.293689 0.1134826 0 0.02905008 0 -6.47024e-08)
(1.256159 0.1144265 0 0.03131329 0 -6.399633e-08)
(1.256159 0.1144266 0 0.0313133 0 -6.388084e-08)
(1.218424 0.1149913 0 0.03356715 0 -6.197981e-08)
(1.218425 0.1149913 0 0.03356718 0 -6.169511e-08)
(1.180531 0.1151813 0 0.03579283 0 -5.900633e-08)
(1.180531 0.1151813 0 0.03579286 0 -5.891383e-08)
(1.142508 0.1150027 0 0.03797095 0 -5.560767e-08)
(1.142508 0.1150027 0 0.03797095 0 -5.562135e-08)
(1.104369 0.1144626 0 0.04008171 0 -5.203605e-08)
(1.104369 0.1144627 0 0.04008173 0 -5.198586e-08)
(1.066116 0.1135693 0 0.04210501 0 -4.83463e-08)
(1.066116 0.1135694 0 0.04210501 0 -4.835939e-08)
(1.02774 0.1123314 0 0.04402033 0 -4.495174e-08)
(1.02774 0.1123314 0 0.04402033 0 -4.502599e-08)
(0.9892228 0.1107576 0 0.04580693 0 -4.16492e-08)
(0.9892226 0.1107576 0 0.04580692 0 -4.188337e-08)
(0.9505374 0.1088568 0 0.0474437 0 -3.87239e-08)
(0.950537 0.1088568 0 0.04744369 0 -3.889038e-08)
(0.9116508 0.1066376 0 0.04890923 0 -3.607787e-08)
(0.9116503 0.1066376 0 0.04890921 0 -3.629549e-08)
(0.8725236 0.1041082 0 0.05018173 0 -3.359486e-08)
(0.8725233 0.1041081 0 0.05018171 0 -3.403328e-08)
(0.8331126 0.1012761 0 0.05123904 0 -3.154321e-08)
(0.8331121 0.1012761 0 0.05123902 0 -3.177617e-08)
(0.793369 0.09814835 0 0.05205837 0 -2.982188e-08)
(0.7933689 0.09814834 0 0.05205836 0 -2.993356e-08)
(0.7532419 0.09473105 0 0.05261636 0 -2.817521e-08)
(0.7532416 0.09473103 0 0.05261635 0 -2.834269e-08)
(0.7126764 0.09102946 0 0.05288886 0 -2.693761e-08)
(0.7126762 0.09102945 0 0.05288887 0 -2.70852e-08)
(0.6716161 0.08704791 0 0.05285076 0 -2.58346e-08)
(0.671616 0.08704789 0 0.05285073 0 -2.619494e-08)
(0.6300028 0.0827898 0 0.05247582 0 -2.512854e-08)
(0.6300027 0.08278978 0 0.0524758 0 -2.522013e-08)
(0.587777 0.07825749 0 0.0517364 0 -2.427894e-08)
(0.5877769 0.07825748 0 0.05173638 0 -2.435201e-08)
(0.5448784 0.07345237 0 0.05060327 0 -2.365304e-08)
(0.5448784 0.07345236 0 0.05060325 0 -2.371078e-08)
(0.5012474 0.068375 0 0.04904546 0 -2.300389e-08)
(0.5012474 0.06837501 0 0.04904546 0 -2.301226e-08)
(0.4568262 0.06302516 0 0.04702999 0 -2.239723e-08)
(0.4568262 0.06302516 0 0.04702998 0 -2.241699e-08)
(0.4115611 0.05740226 0 0.04452198 0 -2.169222e-08)
(0.4115611 0.05740225 0 0.04452198 0 -2.17268e-08)
(0.3654066 0.05150583 0 0.04148485 0 -2.130063e-08)
(0.3654065 0.05150583 0 0.04148484 0 -2.140153e-08)
(0.3183331 0.04533699 0 0.03788167 0 -2.180592e-08)
(0.3183329 0.04533699 0 0.03788166 0 -2.180328e-08)
(0.2703456 0.03890094 0 0.03367756 0 -2.482984e-08)
(0.2703454 0.03890093 0 0.03367757 0 -2.492983e-08)
(0.2215281 0.03221397 0 0.02884762 0 -3.709141e-08)
(0.2215279 0.03221395 0 0.0288476 0 -3.723591e-08)
(0.1721737 0.02532262 0 0.02339758 0 -8.276605e-08)
(0.1721736 0.02532262 0 0.02339757 0 -8.288248e-08)
(0.1232736 0.01837713 0 0.01744414 0 -2.197639e-07)
(0.1232735 0.01837713 0 0.01744412 0 -2.19506e-07)
(0.07770383 0.01180787 0 0.01141251 0 -4.969767e-07)
(0.07770348 0.01180783 0 0.01141248 0 -4.969444e-07)
(0.04142946 0.006517274 0 0.006286275 0 -6.97461e-07)
(0.04142901 0.006517222 0 0.006286225 0 -6.970798e-07)
(0.01966206 0.003315407 0 0.003076418 0 -4.941027e-07)
(0.01966183 0.003315381 0 0.003076394 0 -4.935169e-07)
(0.009550719 0.001804671 0 0.001543223 0 -1.991969e-07)
(0.009550684 0.001804667 0 0.001543219 0 -1.979918e-07)
(0.004985251 0.001093721 0 0.0008274344 0 -6.790074e-08)
(0.004985249 0.00109372 0 0.0008274337 0 -6.611085e-08)
(0.002738567 0.0007184203 0 0.0004713803 0 -2.155726e-08)
(0.002738559 0.0007184192 0 0.0004713801 0 -2.056056e-08)
(0.001374863 0.0004642481 0 0.0002298546 0 -1.207368e-08)
(0.001374852 0.0004642464 0 0.0002298518 0 -1.468984e-08)
(0.0007649886 0.0003170467 0 0.0001630088 0 1.970642e-09)
(0.0007649848 0.0003170466 0 0.0001630081 0 -2.93493e-09)
(0.0001158493 0.0001580971 0 -1.679147e-05 0 -1.092782e-08)
(0.0001158525 0.0001580977 0 -1.679051e-05 0 -9.349203e-09)
(8.508469e-05 5.703607e-05 0 3.705148e-05 0 1.162018e-09)
(8.508112e-05 5.703581e-05 0 3.704958e-05 0 -5.766308e-10)
)
;

boundaryField
{
    leftandright
    {
        type            cyclic;
        value           nonuniform List<symmTensor> 
150
(
(2.096575 0.03253308 0 5.751072e-06 0 2.194561e-06)
(2.095006 0.03253249 0 6.236763e-06 0 2.128737e-06)
(2.092207 0.03254303 0 7.728496e-06 0 2.165437e-06)
(2.087744 0.03256819 0 1.071513e-05 0 2.244324e-06)
(2.080878 0.03261091 0 1.591553e-05 0 2.222186e-06)
(2.071128 0.03268295 0 2.452699e-05 0 2.0231e-06)
(2.058723 0.03281187 0 3.834696e-05 0 1.755044e-06)
(2.044554 0.03304134 0 5.981005e-05 0 1.716995e-06)
(2.028919 0.03341475 0 9.193374e-05 0 2.08935e-06)
(2.00898 0.03393422 0 0.0001381726 0 2.164978e-06)
(1.982372 0.03460295 0 0.0002039564 0 1.269083e-06)
(1.951634 0.0354805 0 0.0002929053 0 -9.969521e-08)
(1.921437 0.03665214 0 0.0004103512 0 -1.036039e-06)
(1.893647 0.03815744 0 0.0005618647 0 -1.462158e-06)
(1.868817 0.04001645 0 0.0007538974 0 -1.519176e-06)
(1.846884 0.04223994 0 0.0009940395 0 -1.356895e-06)
(1.827453 0.04483108 0 0.00129101 0 -1.085936e-06)
(1.809934 0.04778409 0 0.001654484 0 -7.806265e-07)
(1.793615 0.0510824 0 0.002094802 0 -4.894864e-07)
(1.777742 0.05469766 0 0.00262259 0 -2.421648e-07)
(1.761586 0.05859011 0 0.003248325 0 -5.307237e-08)
(1.744509 0.06270983 0 0.003981858 0 7.527764e-08)
(1.726 0.06699903 0 0.004831943 0 1.488364e-07)
(1.7057 0.07139482 0 0.005805822 0 1.784337e-07)
(1.683397 0.07583192 0 0.00690885 0 1.763858e-07)
(1.659015 0.0802454 0 0.008144209 0 1.542692e-07)
(1.632587 0.08457286 0 0.009512717 0 1.216451e-07)
(1.604226 0.08875627 0 0.01101272 0 8.538386e-08)
(1.574105 0.09274324 0 0.01264008 0 5.016218e-08)
(1.542424 0.09648784 0 0.01438825 0 1.880802e-08)
(1.509398 0.09995107 0 0.01624844 0 -7.266598e-09)
(1.475239 0.1031009 0 0.01820979 0 -2.77746e-08)
(1.440145 0.1059121 0 0.02025971 0 -4.302141e-08)
(1.404298 0.1083662 0 0.02238422 0 -5.363724e-08)
(1.367855 0.1104504 0 0.02456829 0 -6.030752e-08)
(1.330949 0.1121571 0 0.02679587 0 -6.369242e-08)
(1.293689 0.1134826 0 0.02905009 0 -6.478413e-08)
(1.256159 0.1144266 0 0.03131329 0 -6.393859e-08)
(1.218424 0.1149913 0 0.03356717 0 -6.183746e-08)
(1.180531 0.1151813 0 0.03579284 0 -5.896008e-08)
(1.142508 0.1150027 0 0.03797095 0 -5.561451e-08)
(1.104369 0.1144626 0 0.04008172 0 -5.201095e-08)
(1.066116 0.1135694 0 0.04210501 0 -4.835285e-08)
(1.02774 0.1123314 0 0.04402033 0 -4.498887e-08)
(0.9892227 0.1107576 0 0.04580693 0 -4.176629e-08)
(0.9505372 0.1088568 0 0.04744369 0 -3.880714e-08)
(0.9116506 0.1066376 0 0.04890922 0 -3.618668e-08)
(0.8725235 0.1041081 0 0.05018172 0 -3.381407e-08)
(0.8331124 0.1012761 0 0.05123903 0 -3.165969e-08)
(0.793369 0.09814835 0 0.05205837 0 -2.987772e-08)
(0.7532418 0.09473104 0 0.05261636 0 -2.825895e-08)
(0.7126763 0.09102945 0 0.05288887 0 -2.70114e-08)
(0.6716161 0.0870479 0 0.05285075 0 -2.601477e-08)
(0.6300028 0.08278979 0 0.05247581 0 -2.517433e-08)
(0.587777 0.07825749 0 0.05173639 0 -2.431547e-08)
(0.5448784 0.07345237 0 0.05060326 0 -2.368191e-08)
(0.5012474 0.068375 0 0.04904546 0 -2.300808e-08)
(0.4568262 0.06302516 0 0.04702998 0 -2.240711e-08)
(0.4115611 0.05740225 0 0.04452198 0 -2.170951e-08)
(0.3654066 0.05150583 0 0.04148485 0 -2.135108e-08)
(0.318333 0.04533699 0 0.03788166 0 -2.18046e-08)
(0.2703455 0.03890093 0 0.03367757 0 -2.487983e-08)
(0.221528 0.03221396 0 0.02884761 0 -3.716366e-08)
(0.1721736 0.02532262 0 0.02339758 0 -8.282427e-08)
(0.1232735 0.01837713 0 0.01744413 0 -2.196349e-07)
(0.07770365 0.01180785 0 0.01141249 0 -4.969606e-07)
(0.04142923 0.006517248 0 0.00628625 0 -6.972704e-07)
(0.01966194 0.003315394 0 0.003076406 0 -4.938098e-07)
(0.009550701 0.001804669 0 0.001543221 0 -1.985944e-07)
(0.00498525 0.00109372 0 0.000827434 0 -6.700579e-08)
(0.002738563 0.0007184197 0 0.0004713802 0 -2.105891e-08)
(0.001374857 0.0004642473 0 0.0002298532 0 -1.338176e-08)
(0.0007649867 0.0003170466 0 0.0001630085 0 -4.821441e-10)
(0.0001158509 0.0001580974 0 -1.679099e-05 0 -1.013851e-08)
(8.50829e-05 5.703594e-05 0 3.705053e-05 0 2.926937e-10)
(2.096575 0.03253308 0 5.751072e-06 0 2.194561e-06)
(2.095006 0.03253249 0 6.236763e-06 0 2.128737e-06)
(2.092207 0.03254303 0 7.728496e-06 0 2.165437e-06)
(2.087744 0.03256819 0 1.071513e-05 0 2.244324e-06)
(2.080878 0.03261091 0 1.591553e-05 0 2.222186e-06)
(2.071128 0.03268295 0 2.452699e-05 0 2.0231e-06)
(2.058723 0.03281187 0 3.834696e-05 0 1.755044e-06)
(2.044554 0.03304134 0 5.981005e-05 0 1.716995e-06)
(2.028919 0.03341475 0 9.193374e-05 0 2.08935e-06)
(2.00898 0.03393422 0 0.0001381726 0 2.164978e-06)
(1.982372 0.03460295 0 0.0002039564 0 1.269083e-06)
(1.951634 0.0354805 0 0.0002929053 0 -9.969521e-08)
(1.921437 0.03665214 0 0.0004103512 0 -1.036039e-06)
(1.893647 0.03815744 0 0.0005618647 0 -1.462158e-06)
(1.868817 0.04001645 0 0.0007538974 0 -1.519176e-06)
(1.846884 0.04223994 0 0.0009940395 0 -1.356895e-06)
(1.827453 0.04483108 0 0.00129101 0 -1.085936e-06)
(1.809934 0.04778409 0 0.001654484 0 -7.806265e-07)
(1.793615 0.0510824 0 0.002094802 0 -4.894864e-07)
(1.777742 0.05469766 0 0.00262259 0 -2.421648e-07)
(1.761586 0.05859011 0 0.003248325 0 -5.307237e-08)
(1.744509 0.06270983 0 0.003981858 0 7.527764e-08)
(1.726 0.06699903 0 0.004831943 0 1.488364e-07)
(1.7057 0.07139482 0 0.005805822 0 1.784337e-07)
(1.683397 0.07583192 0 0.00690885 0 1.763858e-07)
(1.659015 0.0802454 0 0.008144209 0 1.542692e-07)
(1.632587 0.08457286 0 0.009512717 0 1.216451e-07)
(1.604226 0.08875627 0 0.01101272 0 8.538386e-08)
(1.574105 0.09274324 0 0.01264008 0 5.016218e-08)
(1.542424 0.09648784 0 0.01438825 0 1.880802e-08)
(1.509398 0.09995107 0 0.01624844 0 -7.266598e-09)
(1.475239 0.1031009 0 0.01820979 0 -2.77746e-08)
(1.440145 0.1059121 0 0.02025971 0 -4.302141e-08)
(1.404298 0.1083662 0 0.02238422 0 -5.363724e-08)
(1.367855 0.1104504 0 0.02456829 0 -6.030752e-08)
(1.330949 0.1121571 0 0.02679587 0 -6.369242e-08)
(1.293689 0.1134826 0 0.02905009 0 -6.478413e-08)
(1.256159 0.1144266 0 0.03131329 0 -6.393859e-08)
(1.218424 0.1149913 0 0.03356717 0 -6.183746e-08)
(1.180531 0.1151813 0 0.03579284 0 -5.896008e-08)
(1.142508 0.1150027 0 0.03797095 0 -5.561451e-08)
(1.104369 0.1144626 0 0.04008172 0 -5.201095e-08)
(1.066116 0.1135694 0 0.04210501 0 -4.835285e-08)
(1.02774 0.1123314 0 0.04402033 0 -4.498887e-08)
(0.9892227 0.1107576 0 0.04580693 0 -4.176629e-08)
(0.9505372 0.1088568 0 0.04744369 0 -3.880714e-08)
(0.9116506 0.1066376 0 0.04890922 0 -3.618668e-08)
(0.8725235 0.1041081 0 0.05018172 0 -3.381407e-08)
(0.8331124 0.1012761 0 0.05123903 0 -3.165969e-08)
(0.793369 0.09814835 0 0.05205837 0 -2.987772e-08)
(0.7532418 0.09473104 0 0.05261636 0 -2.825895e-08)
(0.7126763 0.09102945 0 0.05288887 0 -2.70114e-08)
(0.6716161 0.0870479 0 0.05285075 0 -2.601477e-08)
(0.6300028 0.08278979 0 0.05247581 0 -2.517433e-08)
(0.587777 0.07825749 0 0.05173639 0 -2.431547e-08)
(0.5448784 0.07345237 0 0.05060326 0 -2.368191e-08)
(0.5012474 0.068375 0 0.04904546 0 -2.300808e-08)
(0.4568262 0.06302516 0 0.04702998 0 -2.240711e-08)
(0.4115611 0.05740225 0 0.04452198 0 -2.170951e-08)
(0.3654066 0.05150583 0 0.04148485 0 -2.135108e-08)
(0.318333 0.04533699 0 0.03788166 0 -2.18046e-08)
(0.2703455 0.03890093 0 0.03367757 0 -2.487983e-08)
(0.221528 0.03221396 0 0.02884761 0 -3.716366e-08)
(0.1721736 0.02532262 0 0.02339758 0 -8.282427e-08)
(0.1232735 0.01837713 0 0.01744413 0 -2.196349e-07)
(0.07770365 0.01180785 0 0.01141249 0 -4.969606e-07)
(0.04142923 0.006517248 0 0.00628625 0 -6.972704e-07)
(0.01966194 0.003315394 0 0.003076406 0 -4.938098e-07)
(0.009550701 0.001804669 0 0.001543221 0 -1.985944e-07)
(0.00498525 0.00109372 0 0.000827434 0 -6.700579e-08)
(0.002738563 0.0007184197 0 0.0004713802 0 -2.105891e-08)
(0.001374857 0.0004642473 0 0.0002298532 0 -1.338176e-08)
(0.0007649867 0.0003170466 0 0.0001630085 0 -4.821441e-10)
(0.0001158509 0.0001580974 0 -1.679099e-05 0 -1.013851e-08)
(8.50829e-05 5.703594e-05 0 3.705053e-05 0 2.926937e-10)
)
;
    }
    wall
    {
        type            calculated;
        value           nonuniform List<symmTensor> 2((2.096611 0.0325342 0 5.827153e-06 0 2.199065e-06) (2.096539 0.03253197 0 5.674993e-06 0 2.190056e-06));
    }
    frontAndBack
    {
        type            empty;
    }
    middle
    {
        type            symmetryPlane;
        value           nonuniform List<symmTensor> 2((8.508469e-05 0 0 3.705148e-05 0 1.162018e-09) (8.508112e-05 0 0 3.704958e-05 0 -5.766308e-10));
    }
}


// ************************************************************************* //
