/*--------------------------------*- C++ -*----------------------------------*\
| =========                 |                                                 |
| \\      /  F ield         | foam-extend: Open Source CFD                    |
|  \\    /   O peration     | Version:     4.0                                |
|   \\  /    A nd           | Web:         http://www.foam-extend.org         |
|    \\/     M anipulation  |                                                 |
\*---------------------------------------------------------------------------*/
FoamFile
{
    version     2.0;
    format      ascii;
    class       volScalarField;
    location    "100";
    object      trC;
}
// * * * * * * * * * * * * * * * * * * * * * * * * * * * * * * * * * * * * * //

dimensions      [0 0 0 0 0 0 0];

internalField   nonuniform List<scalar> 
150
(
630.593
630.5865
630.4513
630.446
630.1984
630.1948
629.7949
629.7929
629.1725
629.1716
628.2841
628.2839
627.146
627.1462
625.8349
625.8354
624.3744
624.375
622.4896
622.4902
619.9343
619.9349
616.9244
616.925
613.907
613.9075
611.0771
611.0776
608.5069
608.5074
606.2057
606.2061
604.1457
604.1461
602.274
602.2744
600.5204
600.5207
598.8058
598.8061
597.0506
597.0509
595.1812
595.1814
593.1352
593.1354
590.8643
590.8645
588.3343
588.3344
585.5242
585.5243
582.4241
582.4242
579.0327
579.0328
575.355
575.355
571.3996
571.3997
567.1776
567.1777
562.7004
562.7005
557.9786
557.9787
553.0214
553.0215
547.8361
547.8361
542.4269
542.427
536.7955
536.7955
530.9399
530.94
524.8552
524.8552
518.5327
518.5327
511.9603
511.9603
505.1222
505.1222
497.9984
497.9984
490.5649
490.5649
482.7931
482.793
474.6493
474.6492
466.0943
466.0942
457.0829
457.0828
447.5627
447.5626
437.4731
437.4731
426.7445
426.7444
415.2957
415.2956
403.033
403.0329
389.847
389.8469
375.6096
375.6096
360.1701
360.17
343.35
343.35
324.9374
324.9374
304.6789
304.6789
282.2712
282.2711
257.3518
257.3517
229.4949
229.4948
198.2265
198.2264
163.1217
163.1216
124.2833
124.2832
83.81521
83.81489
48.16089
48.16044
25.10337
25.10312
13.92194
13.9219
8.755964
8.755962
6.187799
6.187792
4.596481
4.596465
3.923937
3.923927
3.098704
3.09871
3.121711
3.121704
)
;

boundaryField
{
    leftandright
    {
        type            cyclic;
        value           nonuniform List<scalar> 
150
(
630.5897
630.4486
630.1966
629.7939
629.172
628.284
627.1461
625.8352
624.3747
622.4899
619.9346
616.9247
613.9072
611.0773
608.5072
606.2059
604.1459
602.2742
600.5205
598.806
597.0508
595.1813
593.1353
590.8644
588.3344
585.5243
582.4241
579.0328
575.355
571.3997
567.1777
562.7005
557.9786
553.0214
547.8361
542.427
536.7955
530.9399
524.8552
518.5327
511.9603
505.1222
497.9984
490.5649
482.7931
474.6492
466.0943
457.0829
447.5627
437.4731
426.7444
415.2956
403.033
389.847
375.6096
360.17
343.35
324.9374
304.6789
282.2711
257.3518
229.4948
198.2264
163.1217
124.2832
83.81505
48.16067
25.10324
13.92192
8.755963
6.187795
4.596473
3.923932
3.098707
3.121708
630.5897
630.4486
630.1966
629.7939
629.172
628.284
627.1461
625.8352
624.3747
622.4899
619.9346
616.9247
613.9072
611.0773
608.5072
606.2059
604.1459
602.2742
600.5205
598.806
597.0508
595.1813
593.1353
590.8644
588.3344
585.5243
582.4241
579.0328
575.355
571.3997
567.1777
562.7005
557.9786
553.0214
547.8361
542.427
536.7955
530.9399
524.8552
518.5327
511.9603
505.1222
497.9984
490.5649
482.7931
474.6492
466.0943
457.0829
447.5627
437.4731
426.7444
415.2956
403.033
389.847
375.6096
360.17
343.35
324.9374
304.6789
282.2711
257.3518
229.4948
198.2264
163.1217
124.2832
83.81505
48.16067
25.10324
13.92192
8.755963
6.187795
4.596473
3.923932
3.098707
3.121708
)
;
    }
    wall
    {
        type            calculated;
        value           nonuniform List<scalar> 2(630.593 630.5865);
    }
    frontAndBack
    {
        type            empty;
    }
    middle
    {
        type            symmetryPlane;
        value           nonuniform List<scalar> 2(3.121711 3.121704);
    }
}


// ************************************************************************* //
