/*--------------------------------*- C++ -*----------------------------------*\
| =========                 |                                                 |
| \\      /  F ield         | foam-extend: Open Source CFD                    |
|  \\    /   O peration     | Version:     4.0                                |
|   \\  /    A nd           | Web:         http://www.foam-extend.org         |
|    \\/     M anipulation  |                                                 |
\*---------------------------------------------------------------------------*/
FoamFile
{
    version     2.0;
    format      ascii;
    class       volVectorField;
    location    "100";
    object      U;
}
// * * * * * * * * * * * * * * * * * * * * * * * * * * * * * * * * * * * * * //

dimensions      [0 1 -1 0 0 0 0];

internalField   nonuniform List<vector> 
150
(
(0.2643313 3.264254e-06 0)
(0.2643317 3.265382e-06 0)
(0.8057628 8.461464e-06 0)
(0.8057638 8.463003e-06 0)
(1.373804 1.043232e-05 0)
(1.373805 1.043166e-05 0)
(1.969009 1.090068e-05 0)
(1.96901 1.08989e-05 0)
(2.591233 9.870632e-06 0)
(2.591234 9.869302e-06 0)
(3.239478 7.637819e-06 0)
(3.239478 7.636998e-06 0)
(3.911946 4.788885e-06 0)
(3.911946 4.788144e-06 0)
(4.606307 1.487695e-06 0)
(4.606308 1.48688e-06 0)
(5.320081 -3.767511e-06 0)
(5.320081 -3.768394e-06 0)
(6.05009 -9.65667e-06 0)
(6.050091 -9.657574e-06 0)
(6.787597 -1.197006e-05 0)
(6.787597 -1.197098e-05 0)
(7.522766 -1.226575e-05 0)
(7.522766 -1.226669e-05 0)
(8.250069 -1.292412e-05 0)
(8.250069 -1.292504e-05 0)
(8.964754 -1.306085e-05 0)
(8.964754 -1.306178e-05 0)
(9.66286 -1.249493e-05 0)
(9.66286 -1.24959e-05 0)
(10.34121 -1.133647e-05 0)
(10.34121 -1.13374e-05 0)
(10.99737 -9.77308e-06 0)
(10.99737 -9.773954e-06 0)
(11.62961 -7.987433e-06 0)
(11.62961 -7.988293e-06 0)
(12.23685 -6.139746e-06 0)
(12.23685 -6.1406e-06 0)
(12.81855 -4.354899e-06 0)
(12.81855 -4.355738e-06 0)
(13.37466 -2.718528e-06 0)
(13.37466 -2.719158e-06 0)
(13.90553 -1.280259e-06 0)
(13.90553 -1.280954e-06 0)
(14.4118 -6.003725e-08 0)
(14.4118 -6.07815e-08 0)
(14.89437 9.430433e-07 0)
(14.89437 9.426126e-07 0)
(15.3543 1.743407e-06 0)
(15.3543 1.743033e-06 0)
(15.79277 2.36316e-06 0)
(15.79277 2.362718e-06 0)
(16.21102 2.827416e-06 0)
(16.21102 2.827027e-06 0)
(16.61033 3.161937e-06 0)
(16.61033 3.161646e-06 0)
(16.99197 3.390942e-06 0)
(16.99197 3.390882e-06 0)
(17.35719 3.536933e-06 0)
(17.35719 3.536945e-06 0)
(17.70719 3.620679e-06 0)
(17.70719 3.620564e-06 0)
(18.04312 3.660492e-06 0)
(18.04312 3.660504e-06 0)
(18.36607 3.661129e-06 0)
(18.36607 3.661246e-06 0)
(18.67705 3.600995e-06 0)
(18.67705 3.60096e-06 0)
(18.97701 3.478276e-06 0)
(18.97701 3.478457e-06 0)
(19.26681 3.323247e-06 0)
(19.26681 3.322893e-06 0)
(19.54724 3.153299e-06 0)
(19.54724 3.153237e-06 0)
(19.81905 2.977283e-06 0)
(19.81905 2.978304e-06 0)
(20.08288 2.803061e-06 0)
(20.08288 2.80346e-06 0)
(20.33935 2.632982e-06 0)
(20.33935 2.632388e-06 0)
(20.58899 2.468391e-06 0)
(20.58899 2.46855e-06 0)
(20.8323 2.311709e-06 0)
(20.8323 2.311932e-06 0)
(21.06972 2.162276e-06 0)
(21.06972 2.161829e-06 0)
(21.30165 2.02056e-06 0)
(21.30165 2.020637e-06 0)
(21.52843 1.886408e-06 0)
(21.52843 1.886408e-06 0)
(21.75037 1.758454e-06 0)
(21.75037 1.758472e-06 0)
(21.96774 1.636524e-06 0)
(21.96774 1.63674e-06 0)
(22.18078 1.520779e-06 0)
(22.18078 1.520983e-06 0)
(22.38967 1.409338e-06 0)
(22.38967 1.409648e-06 0)
(22.59458 1.300467e-06 0)
(22.59458 1.300749e-06 0)
(22.79562 1.195314e-06 0)
(22.79562 1.195735e-06 0)
(22.99289 1.090928e-06 0)
(22.99289 1.090985e-06 0)
(23.18644 9.869926e-07 0)
(23.18644 9.867461e-07 0)
(23.37628 8.818511e-07 0)
(23.37628 8.820636e-07 0)
(23.56242 7.718937e-07 0)
(23.56242 7.719977e-07 0)
(23.7448 6.568996e-07 0)
(23.7448 6.572132e-07 0)
(23.92334 5.318329e-07 0)
(23.92334 5.321124e-07 0)
(24.09793 3.924581e-07 0)
(24.09793 3.924837e-07 0)
(24.26841 2.296551e-07 0)
(24.26841 2.296603e-07 0)
(24.43461 3.287543e-08 0)
(24.43461 3.284985e-08 0)
(24.5963 -2.253284e-07 0)
(24.5963 -2.251744e-07 0)
(24.75324 -5.660412e-07 0)
(24.75324 -5.661944e-07 0)
(24.90512 -1.2641e-06 0)
(24.90512 -1.264287e-06 0)
(25.05161 -2.754617e-06 0)
(25.05161 -2.75464e-06 0)
(25.19232 -7.44328e-06 0)
(25.19232 -7.443677e-06 0)
(25.32671 -6.994655e-06 0)
(25.32671 -6.995034e-06 0)
(25.45402 2.223019e-06 0)
(25.45402 2.223094e-06 0)
(25.57304 1.518953e-05 0)
(25.57304 1.518991e-05 0)
(25.68228 -3.991608e-06 0)
(25.68228 -3.991397e-06 0)
(25.78028 5.160878e-05 0)
(25.78028 5.160882e-05 0)
(25.86569 -0.0001486422 0)
(25.86569 -0.0001486422 0)
(25.93721 0.0004779347 0)
(25.93721 0.0004779347 0)
(25.99347 -0.001477603 0)
(25.99347 -0.001477603 0)
(26.03298 0.004359775 0)
(26.03298 0.004359775 0)
(26.05395 -0.008246922 0)
(26.05395 -0.008246922 0)
)
;

boundaryField
{
    leftandright
    {
        type            cyclic;
        value           nonuniform List<vector> 
150
(
(0.2643315 3.264818e-06 0)
(0.8057633 8.462233e-06 0)
(1.373805 1.043199e-05 0)
(1.96901 1.089979e-05 0)
(2.591233 9.869967e-06 0)
(3.239478 7.637408e-06 0)
(3.911946 4.788514e-06 0)
(4.606308 1.487287e-06 0)
(5.320081 -3.767952e-06 0)
(6.05009 -9.657122e-06 0)
(6.787597 -1.197052e-05 0)
(7.522766 -1.226622e-05 0)
(8.250069 -1.292458e-05 0)
(8.964754 -1.306131e-05 0)
(9.66286 -1.249542e-05 0)
(10.34121 -1.133694e-05 0)
(10.99737 -9.773517e-06 0)
(11.62961 -7.987863e-06 0)
(12.23685 -6.140173e-06 0)
(12.81855 -4.355319e-06 0)
(13.37466 -2.718843e-06 0)
(13.90553 -1.280607e-06 0)
(14.4118 -6.040937e-08 0)
(14.89437 9.428279e-07 0)
(15.3543 1.74322e-06 0)
(15.79277 2.362939e-06 0)
(16.21102 2.827222e-06 0)
(16.61033 3.161792e-06 0)
(16.99197 3.390912e-06 0)
(17.35719 3.536939e-06 0)
(17.70719 3.620622e-06 0)
(18.04312 3.660498e-06 0)
(18.36607 3.661188e-06 0)
(18.67705 3.600977e-06 0)
(18.97701 3.478366e-06 0)
(19.26681 3.32307e-06 0)
(19.54724 3.153268e-06 0)
(19.81905 2.977793e-06 0)
(20.08288 2.80326e-06 0)
(20.33935 2.632685e-06 0)
(20.58899 2.46847e-06 0)
(20.8323 2.31182e-06 0)
(21.06972 2.162053e-06 0)
(21.30165 2.020599e-06 0)
(21.52843 1.886408e-06 0)
(21.75037 1.758463e-06 0)
(21.96774 1.636632e-06 0)
(22.18078 1.520881e-06 0)
(22.38967 1.409493e-06 0)
(22.59458 1.300608e-06 0)
(22.79562 1.195524e-06 0)
(22.99289 1.090956e-06 0)
(23.18644 9.868693e-07 0)
(23.37628 8.819574e-07 0)
(23.56242 7.719457e-07 0)
(23.7448 6.570564e-07 0)
(23.92334 5.319726e-07 0)
(24.09793 3.924709e-07 0)
(24.26841 2.296577e-07 0)
(24.43461 3.286264e-08 0)
(24.5963 -2.252514e-07 0)
(24.75324 -5.661178e-07 0)
(24.90512 -1.264194e-06 0)
(25.05161 -2.754629e-06 0)
(25.19232 -7.443478e-06 0)
(25.32671 -6.994845e-06 0)
(25.45402 2.223056e-06 0)
(25.57304 1.518972e-05 0)
(25.68228 -3.991503e-06 0)
(25.78028 5.16088e-05 0)
(25.86569 -0.0001486422 0)
(25.93721 0.0004779347 0)
(25.99347 -0.001477603 0)
(26.03298 0.004359775 0)
(26.05395 -0.008246922 0)
(0.2643315 3.264818e-06 0)
(0.8057633 8.462233e-06 0)
(1.373805 1.043199e-05 0)
(1.96901 1.089979e-05 0)
(2.591233 9.869967e-06 0)
(3.239478 7.637408e-06 0)
(3.911946 4.788514e-06 0)
(4.606308 1.487287e-06 0)
(5.320081 -3.767952e-06 0)
(6.05009 -9.657122e-06 0)
(6.787597 -1.197052e-05 0)
(7.522766 -1.226622e-05 0)
(8.250069 -1.292458e-05 0)
(8.964754 -1.306131e-05 0)
(9.66286 -1.249542e-05 0)
(10.34121 -1.133694e-05 0)
(10.99737 -9.773517e-06 0)
(11.62961 -7.987863e-06 0)
(12.23685 -6.140173e-06 0)
(12.81855 -4.355319e-06 0)
(13.37466 -2.718843e-06 0)
(13.90553 -1.280607e-06 0)
(14.4118 -6.040937e-08 0)
(14.89437 9.428279e-07 0)
(15.3543 1.74322e-06 0)
(15.79277 2.362939e-06 0)
(16.21102 2.827222e-06 0)
(16.61033 3.161792e-06 0)
(16.99197 3.390912e-06 0)
(17.35719 3.536939e-06 0)
(17.70719 3.620622e-06 0)
(18.04312 3.660498e-06 0)
(18.36607 3.661188e-06 0)
(18.67705 3.600977e-06 0)
(18.97701 3.478366e-06 0)
(19.26681 3.32307e-06 0)
(19.54724 3.153268e-06 0)
(19.81905 2.977793e-06 0)
(20.08288 2.80326e-06 0)
(20.33935 2.632685e-06 0)
(20.58899 2.46847e-06 0)
(20.8323 2.31182e-06 0)
(21.06972 2.162053e-06 0)
(21.30165 2.020599e-06 0)
(21.52843 1.886408e-06 0)
(21.75037 1.758463e-06 0)
(21.96774 1.636632e-06 0)
(22.18078 1.520881e-06 0)
(22.38967 1.409493e-06 0)
(22.59458 1.300608e-06 0)
(22.79562 1.195524e-06 0)
(22.99289 1.090956e-06 0)
(23.18644 9.868693e-07 0)
(23.37628 8.819574e-07 0)
(23.56242 7.719457e-07 0)
(23.7448 6.570564e-07 0)
(23.92334 5.319726e-07 0)
(24.09793 3.924709e-07 0)
(24.26841 2.296577e-07 0)
(24.43461 3.286264e-08 0)
(24.5963 -2.252514e-07 0)
(24.75324 -5.661178e-07 0)
(24.90512 -1.264194e-06 0)
(25.05161 -2.754629e-06 0)
(25.19232 -7.443478e-06 0)
(25.32671 -6.994845e-06 0)
(25.45402 2.223056e-06 0)
(25.57304 1.518972e-05 0)
(25.68228 -3.991503e-06 0)
(25.78028 5.16088e-05 0)
(25.86569 -0.0001486422 0)
(25.93721 0.0004779347 0)
(25.99347 -0.001477603 0)
(26.03298 0.004359775 0)
(26.05395 -0.008246922 0)
)
;
    }
    wall
    {
        type            fixedValue;
        value           uniform (0 0 0);
    }
    frontAndBack
    {
        type            empty;
    }
    middle
    {
        type            symmetryPlane;
        value           nonuniform List<vector> 2((26.05395 0 0) (26.05395 0 0));
    }
}


// ************************************************************************* //
