/*--------------------------------*- C++ -*----------------------------------*\
| =========                 |                                                 |
| \\      /  F ield         | foam-extend: Open Source CFD                    |
|  \\    /   O peration     | Version:     4.0                                |
|   \\  /    A nd           | Web:         http://www.foam-extend.org         |
|    \\/     M anipulation  |                                                 |
\*---------------------------------------------------------------------------*/
FoamFile
{
    version     2.0;
    format      ascii;
    class       volScalarField;
    location    "100";
    object      v2;
}
// * * * * * * * * * * * * * * * * * * * * * * * * * * * * * * * * * * * * * //

dimensions      [0 2 -2 0 0 0 0];

internalField   nonuniform List<scalar> 
150
(
8.526132e-07
8.526134e-07
4.141898e-05
4.141899e-05
0.0002494359
0.0002494359
0.0008195219
0.0008195221
0.001979958
0.001979958
0.003964519
0.00396452
0.006990219
0.006990221
0.01124323
0.01124324
0.01687445
0.01687445
0.02399527
0.02399527
0.03262297
0.03262298
0.04270623
0.04270624
0.05419423
0.05419425
0.06700462
0.06700464
0.08102752
0.08102753
0.09613108
0.0961311
0.1121682
0.1121682
0.1289831
0.1289831
0.1464179
0.1464179
0.1643173
0.1643173
0.1825329
0.1825329
0.2009253
0.2009253
0.2193659
0.219366
0.2377376
0.2377376
0.2559343
0.2559343
0.273861
0.273861
0.291433
0.291433
0.3085749
0.308575
0.3252204
0.3252205
0.3413111
0.3413112
0.3567965
0.3567966
0.3716335
0.3716336
0.3857868
0.3857868
0.3992288
0.3992288
0.4119401
0.4119401
0.4239068
0.4239068
0.435119
0.435119
0.4455701
0.4455701
0.4552559
0.4552559
0.4641742
0.4641742
0.4723247
0.4723247
0.4797089
0.4797089
0.4863296
0.4863296
0.4921917
0.4921917
0.4973012
0.4973012
0.5016664
0.5016664
0.5052969
0.5052969
0.5082044
0.5082044
0.5104023
0.5104022
0.5119058
0.5119058
0.5127319
0.5127319
0.5128991
0.5128991
0.5124271
0.5124271
0.5113365
0.5113365
0.509648
0.5096479
0.5073814
0.5073814
0.5045545
0.5045545
0.5011813
0.5011813
0.4972691
0.4972691
0.4928155
0.4928155
0.4878035
0.4878034
0.4821949
0.4821949
0.475922
0.4759219
0.4688744
0.4688743
0.4608834
0.4608833
0.4517003
0.4517002
0.4409725
0.4409724
0.4290261
0.4290261
0.4163965
0.4163965
0.4037026
0.4037026
0.3915979
0.3915979
0.3807313
0.3807313
0.3717234
0.3717234
0.36516
0.36516
0.361596
0.361596
)
;

boundaryField
{
    leftandright
    {
        type            cyclic;
        value           nonuniform List<scalar> 
150
(
8.526133e-07
4.141898e-05
0.0002494359
0.000819522
0.001979958
0.00396452
0.00699022
0.01124324
0.01687445
0.02399527
0.03262297
0.04270624
0.05419424
0.06700463
0.08102752
0.09613109
0.1121682
0.1289831
0.1464179
0.1643173
0.1825329
0.2009253
0.219366
0.2377376
0.2559343
0.273861
0.291433
0.308575
0.3252205
0.3413112
0.3567965
0.3716335
0.3857868
0.3992288
0.4119401
0.4239068
0.435119
0.4455701
0.4552559
0.4641742
0.4723247
0.4797089
0.4863296
0.4921917
0.4973012
0.5016664
0.5052969
0.5082044
0.5104022
0.5119058
0.5127319
0.5128991
0.5124271
0.5113365
0.509648
0.5073814
0.5045545
0.5011813
0.4972691
0.4928155
0.4878034
0.4821949
0.4759219
0.4688744
0.4608834
0.4517003
0.4409724
0.4290261
0.4163965
0.4037026
0.3915979
0.3807313
0.3717234
0.36516
0.361596
8.526133e-07
4.141898e-05
0.0002494359
0.000819522
0.001979958
0.00396452
0.00699022
0.01124324
0.01687445
0.02399527
0.03262297
0.04270624
0.05419424
0.06700463
0.08102752
0.09613109
0.1121682
0.1289831
0.1464179
0.1643173
0.1825329
0.2009253
0.219366
0.2377376
0.2559343
0.273861
0.291433
0.308575
0.3252205
0.3413112
0.3567965
0.3716335
0.3857868
0.3992288
0.4119401
0.4239068
0.435119
0.4455701
0.4552559
0.4641742
0.4723247
0.4797089
0.4863296
0.4921917
0.4973012
0.5016664
0.5052969
0.5082044
0.5104022
0.5119058
0.5127319
0.5128991
0.5124271
0.5113365
0.509648
0.5073814
0.5045545
0.5011813
0.4972691
0.4928155
0.4878034
0.4821949
0.4759219
0.4688744
0.4608834
0.4517003
0.4409724
0.4290261
0.4163965
0.4037026
0.3915979
0.3807313
0.3717234
0.36516
0.361596
)
;
    }
    wall
    {
        type            fixedValue;
        value           uniform 1e-10;
    }
    frontAndBack
    {
        type            empty;
    }
    middle
    {
        type            symmetryPlane;
        value           nonuniform List<scalar> 2(0.361596 0.361596);
    }
}


// ************************************************************************* //
