/*--------------------------------*- C++ -*----------------------------------*\
| =========                 |                                                 |
| \\      /  F ield         | foam-extend: Open Source CFD                    |
|  \\    /   O peration     | Version:     4.0                                |
|   \\  /    A nd           | Web:         http://www.foam-extend.org         |
|    \\/     M anipulation  |                                                 |
\*---------------------------------------------------------------------------*/
FoamFile
{
    version     2.0;
    format      ascii;
    class       regIOobject;
    location    "100/uniform";
    object      profilingInfo;
}
// * * * * * * * * * * * * * * * * * * * * * * * * * * * * * * * * * * * * * //

profilingInfo
(

    {
        id              24;
        parentId        22;
        description     "Foam::Time::writeObject - outputTime";
        calls           1;
        totalTime       0.009587;
        childTime       0;
        onStack         1;
    }

    {
        id              22;
        parentId        1;
        description     "Foam::Time::writeObject";
        calls           100;
        totalTime       0.009786;
        childTime       0.009587;
        onStack         1;
    }

    {
        id              1;
        description     "application::main";
        calls           1;
        totalTime       0.655167;
        childTime       0.126848;
        onStack         1;
    }

    {
        id              3;
        parentId        2;
        description     "functionObjectList::read";
        calls           1;
        totalTime       3e-06;
        childTime       0;
        onStack         0;
    }

    {
        id              23;
        parentId        1;
        description     "functionObjects_.execute()";
        calls           99;
        totalTime       0.000121;
        childTime       0;
        onStack         0;
    }

    {
        id              2;
        parentId        1;
        description     "functionObjects_.start()";
        calls           1;
        totalTime       1.1e-05;
        childTime       3e-06;
        onStack         0;
    }

    {
        id              17;
        parentId        1;
        description     "fvMatrix::solve_C";
        calls           200;
        totalTime       0.026902;
        childTime       0.006848;
        onStack         0;
    }

    {
        id              4;
        parentId        1;
        description     "fvMatrix::solve_U";
        calls           200;
        totalTime       0.021988;
        childTime       0.006687;
        onStack         0;
    }

    {
        id              9;
        parentId        1;
        description     "fvMatrix::solve_epsilon";
        calls           200;
        totalTime       0.0138;
        childTime       0.003505;
        onStack         0;
    }

    {
        id              13;
        parentId        1;
        description     "fvMatrix::solve_f";
        calls           200;
        totalTime       0.013637;
        childTime       0.005284;
        onStack         0;
    }

    {
        id              11;
        parentId        1;
        description     "fvMatrix::solve_k";
        calls           200;
        totalTime       0.01106;
        childTime       0.003139;
        onStack         0;
    }

    {
        id              7;
        parentId        1;
        description     "fvMatrix::solve_p";
        calls           200;
        totalTime       0.018285;
        childTime       0.009881;
        onStack         0;
    }

    {
        id              15;
        parentId        1;
        description     "fvMatrix::solve_v2";
        calls           200;
        totalTime       0.011258;
        childTime       0.003343;
        onStack         0;
    }

    {
        id              18;
        parentId        17;
        description     "lduMatrix::solver_Cxx";
        calls           200;
        totalTime       0.002071;
        childTime       0;
        onStack         0;
    }

    {
        id              19;
        parentId        17;
        description     "lduMatrix::solver_Cxy";
        calls           200;
        totalTime       0.001491;
        childTime       0;
        onStack         0;
    }

    {
        id              20;
        parentId        17;
        description     "lduMatrix::solver_Cyy";
        calls           200;
        totalTime       0.001887;
        childTime       0;
        onStack         0;
    }

    {
        id              21;
        parentId        17;
        description     "lduMatrix::solver_Czz";
        calls           200;
        totalTime       0.001399;
        childTime       0;
        onStack         0;
    }

    {
        id              5;
        parentId        4;
        description     "lduMatrix::solver_Ux";
        calls           200;
        totalTime       0.003915;
        childTime       0;
        onStack         0;
    }

    {
        id              6;
        parentId        4;
        description     "lduMatrix::solver_Uy";
        calls           200;
        totalTime       0.002772;
        childTime       0;
        onStack         0;
    }

    {
        id              10;
        parentId        9;
        description     "lduMatrix::solver_epsilon";
        calls           200;
        totalTime       0.003505;
        childTime       0;
        onStack         0;
    }

    {
        id              14;
        parentId        13;
        description     "lduMatrix::solver_f";
        calls           200;
        totalTime       0.005284;
        childTime       0;
        onStack         0;
    }

    {
        id              12;
        parentId        11;
        description     "lduMatrix::solver_k";
        calls           200;
        totalTime       0.003139;
        childTime       0;
        onStack         0;
    }

    {
        id              8;
        parentId        7;
        description     "lduMatrix::solver_p";
        calls           200;
        totalTime       0.009881;
        childTime       0;
        onStack         0;
    }

    {
        id              16;
        parentId        15;
        description     "lduMatrix::solver_v2";
        calls           200;
        totalTime       0.003343;
        childTime       0;
        onStack         0;
    }
);


// ************************************************************************* //
