/*--------------------------------*- C++ -*----------------------------------*\
| =========                 |                                                 |
| \\      /  F ield         | foam-extend: Open Source CFD                    |
|  \\    /   O peration     | Version:     4.0                                |
|   \\  /    A nd           | Web:         http://www.foam-extend.org         |
|    \\/     M anipulation  |                                                 |
\*---------------------------------------------------------------------------*/
FoamFile
{
    version     2.0;
    format      ascii;
    class       volSymmTensorField;
    location    "100";
    object      C;
}
// * * * * * * * * * * * * * * * * * * * * * * * * * * * * * * * * * * * * * //

dimensions      [0 0 0 0 0 0 0];

internalField   nonuniform List<symmTensor> 
150
(
(1337.762 20.59574 0 0.6316872 0 0.6296176)
(1337.762 20.59568 0 0.6316864 0 0.6296181)
(1336.957 20.60005 0 0.6322296 0 0.6298266)
(1336.957 20.59999 0 0.6322287 0 0.6298272)
(1335.363 20.61279 0 0.6335022 0 0.6302746)
(1335.364 20.61273 0 0.6335015 0 0.6302751)
(1332.814 20.6375 0 0.6358394 0 0.6309994)
(1332.815 20.63745 0 0.6358388 0 0.6309998)
(1329.047 20.67878 0 0.6397633 0 0.6320465)
(1329.047 20.67874 0 0.6397628 0 0.6320468)
(1323.832 20.74463 0 0.6460266 0 0.6334622)
(1323.832 20.74461 0 0.6460263 0 0.6334624)
(1317.089 20.84814 0 0.65561 0 0.6352875)
(1317.089 20.84813 0 0.6556099 0 0.6352876)
(1308.885 21.00786 0 0.6697315 0 0.6375611)
(1308.885 21.00785 0 0.6697314 0 0.6375612)
(1299.166 21.24539 0 0.6899858 0 0.6403411)
(1299.167 21.24539 0 0.6899859 0 0.6403412)
(1286.981 21.57459 0 0.7187212 0 0.6437296)
(1286.982 21.5746 0 0.7187214 0 0.6437297)
(1271.326 22.00755 0 0.7599066 0 0.6478089)
(1271.327 22.00757 0 0.7599069 0 0.6478091)
(1252.686 22.56587 0 0.8153874 0 0.6525277)
(1252.687 22.5659 0 0.8153879 0 0.6525279)
(1232.619 23.27789 0 0.8874259 0 0.6577023)
(1232.62 23.27791 0 0.8874266 0 0.6577024)
(1212.116 24.16012 0 0.9788278 0 0.6631338)
(1212.117 24.16015 0 0.9788288 0 0.6631339)
(1191.712 25.22179 0 1.093026 0 0.6686667)
(1191.713 25.22182 0 1.093027 0 0.6686668)
(1171.611 26.46727 0 1.234132 0 0.6742075)
(1171.612 26.46731 0 1.234134 0 0.6742076)
(1151.789 27.89636 0 1.406911 0 0.6797233)
(1151.79 27.8964 0 1.406913 0 0.6797234)
(1132.067 29.5034 0 1.616673 0 0.685231)
(1132.068 29.50344 0 1.616675 0 0.6852311)
(1112.163 31.27598 0 1.869098 0 0.6907844)
(1112.164 31.27602 0 1.869101 0 0.6907845)
(1091.738 33.19398 0 2.169978 0 0.6964605)
(1091.739 33.19402 0 2.169981 0 0.6964606)
(1070.44 35.22919 0 2.524882 0 0.702346)
(1070.441 35.22922 0 2.524885 0 0.7023461)
(1047.948 37.34563 0 2.938768 0 0.7085251)
(1047.949 37.34566 0 2.938771 0 0.7085252)
(1024 39.50071 0 3.415559 0 0.715069)
(1024.001 39.50075 0 3.415563 0 0.7150692)
(998.4239 41.64698 0 3.957714 0 0.7220287)
(998.4245 41.64701 0 3.957718 0 0.7220289)
(971.1393 43.7342 0 4.565841 0 0.729431)
(971.1398 43.73423 0 4.565845 0 0.7294312)
(942.1588 45.7117 0 5.238369 0 0.7372783)
(942.1593 45.71173 0 5.238373 0 0.7372786)
(911.5735 47.53054 0 5.971313 0 0.7455514)
(911.5739 47.53057 0 5.971318 0 0.7455516)
(879.5342 49.14544 0 6.758155 0 0.7542142)
(879.5347 49.14547 0 6.75816 0 0.7542143)
(846.2308 50.5163 0 7.589834 0 0.7632189)
(846.2312 50.51634 0 7.58984 0 0.7632191)
(811.8715 51.60927 0 8.454859 0 0.7725125)
(811.8719 51.6093 0 8.454865 0 0.7725127)
(776.6661 52.39731 0 9.339524 0 0.782041)
(776.6664 52.39733 0 9.339529 0 0.7820411)
(740.8133 52.86051 0 10.22824 0 0.7917532)
(740.8136 52.86053 0 10.22824 0 0.7917533)
(704.4922 52.9859 0 11.10389 0 0.8016035)
(704.4926 52.98592 0 11.10389 0 0.8016036)
(667.8575 52.76678 0 11.94812 0 0.8115532)
(667.8578 52.76682 0 11.94813 0 0.8115533)
(631.0365 52.20205 0 12.74167 0 0.8215715)
(631.0368 52.20209 0 12.74168 0 0.8215715)
(594.1312 51.29552 0 13.4647 0 0.8316345)
(594.1316 51.29555 0 13.46471 0 0.8316345)
(557.2207 50.05528 0 14.09721 0 0.8417252)
(557.2211 50.05531 0 14.09722 0 0.8417252)
(520.3645 48.49314 0 14.61945 0 0.8518321)
(520.3648 48.49318 0 14.61946 0 0.8518321)
(483.6071 46.6241 0 15.01237 0 0.8619474)
(483.6075 46.62415 0 15.01238 0 0.8619473)
(446.9845 44.46598 0 15.25808 0 0.8720658)
(446.985 44.46603 0 15.2581 0 0.8720657)
(410.5305 42.03932 0 15.34044 0 0.8821821)
(410.5309 42.03938 0 15.34046 0 0.882182)
(374.285 39.36747 0 15.24567 0 0.8922886)
(374.2855 39.36752 0 15.24569 0 0.8922884)
(338.3061 36.47706 0 14.96319 0 0.902372)
(338.3067 36.47713 0 14.96322 0 0.9023718)
(302.6847 33.39924 0 14.48674 0 0.9124082)
(302.6852 33.39932 0 14.48677 0 0.912408)
(267.5654 30.17159 0 13.81602 0 0.9223565)
(267.5661 30.17167 0 13.81606 0 0.9223563)
(233.1755 26.84111 0 12.95898 0 0.932151)
(233.1762 26.84118 0 12.95901 0 0.9321508)
(199.8573 23.46811 0 11.93489 0 0.9416909)
(199.8579 23.46818 0 11.93492 0 0.9416905)
(168.0962 20.1298 0 10.77777 0 0.9508315)
(168.0968 20.12987 0 10.7778 0 0.9508313)
(138.5193 16.9207 0 9.538514 0 0.9593862)
(138.5199 16.92076 0 9.538548 0 0.9593859)
(111.8298 13.94553 0 8.282939 0 0.9671436)
(111.8303 13.94559 0 8.28297 0 0.9671433)
(88.65971 11.30185 0 7.082802 0 0.9739112)
(88.6601 11.30189 0 7.082829 0 0.973911)
(69.37781 9.056266 0 6.000658 0 0.9795707)
(69.3781 9.0563 0 6.000678 0 0.9795705)
(53.95918 7.226746 0 5.075127 0 0.9841177)
(53.95937 7.226769 0 5.075142 0 0.9841176)
(42.00545 5.782841 0 4.315324 0 0.987658)
(42.00558 5.782856 0 4.315333 0 0.9876579)
(32.90116 4.663297 0 3.706949 0 0.9903641)
(32.90125 4.663307 0 3.706955 0 0.990364)
(25.99814 3.798453 0 3.224208 0 0.9924222)
(25.99819 3.798459 0 3.224213 0 0.9924222)
(20.73554 3.125791 0 2.839968 0 0.9939955)
(20.73557 3.125795 0 2.83997 0 0.9939955)
(16.67936 2.595879 0 2.530981 0 0.9952113)
(16.67938 2.59588 0 2.530982 0 0.9952112)
(13.51261 2.172079 0 2.279189 0 0.9961631)
(13.51262 2.17208 0 2.27919 0 0.9961631)
(11.00904 1.827961 0 2.071162 0 0.9969179)
(11.00905 1.827962 0 2.071163 0 0.9969179)
(9.00774 1.544554 0 1.897059 0 0.9975233)
(9.007744 1.544555 0 1.897059 0 0.9975233)
(7.393385 1.308178 0 1.749671 0 0.9980135)
(7.393387 1.308178 0 1.749671 0 0.9980134)
(6.082401 1.108871 0 1.6237 0 0.9984132)
(6.082402 1.108872 0 1.6237 0 0.9984132)
(5.01326 0.9392986 0 1.515211 0 0.9987407)
(5.013261 0.9392987 0 1.515211 0 0.9987407)
(4.14019 0.7940444 0 1.421346 0 0.9990096)
(4.14019 0.7940445 0 1.421346 0 0.9990095)
(3.427937 0.6689668 0 1.3399 0 0.9992302)
(3.427939 0.6689669 0 1.3399 0 0.9992301)
(2.847545 0.5606209 0 1.269009 0 0.9994111)
(2.847546 0.560621 0 1.269009 0 0.9994111)
(2.37599 0.4660902 0 1.207575 0 0.9995591)
(2.375992 0.4660905 0 1.207575 0 0.9995593)
(1.996493 0.3831363 0 1.155538 0 0.9996787)
(1.996494 0.3831367 0 1.155538 0 0.9996793)
(1.689652 0.3089231 0 1.110293 0 0.9997767)
(1.689652 0.3089233 0 1.110293 0 0.9997775)
(1.457857 0.2436889 0 1.077128 0 0.9998513)
(1.457855 0.2436884 0 1.077128 0 0.9998519)
(1.254576 0.1813951 0 1.03826 0 0.9999202)
(1.254574 0.1813942 0 1.038259 0 0.9999189)
(1.181259 0.13126 0 1.045576 0 0.999938)
(1.181259 0.13126 0 1.045575 0 0.9999352)
(0.9834542 0.07263238 0 0.9745446 0 0.9999993)
(0.9834544 0.07263279 0 0.9745448 0 1)
(1.04326 0.02585656 0 1.020526 0 0.9999829)
(1.043258 0.02585627 0 1.020526 0 0.9999819)
)
;

boundaryField
{
    leftandright
    {
        type            cyclic;
        value           nonuniform List<symmTensor> 
150
(
(1337.762 20.59571 0 0.6316868 0 0.6296179)
(1336.957 20.60002 0 0.6322291 0 0.6298269)
(1335.363 20.61276 0 0.6335019 0 0.6302749)
(1332.814 20.63747 0 0.6358391 0 0.6309996)
(1329.047 20.67876 0 0.6397631 0 0.6320466)
(1323.832 20.74462 0 0.6460265 0 0.6334623)
(1317.089 20.84814 0 0.65561 0 0.6352875)
(1308.885 21.00785 0 0.6697315 0 0.6375611)
(1299.167 21.24539 0 0.6899859 0 0.6403411)
(1286.982 21.57459 0 0.7187213 0 0.6437297)
(1271.327 22.00756 0 0.7599068 0 0.647809)
(1252.687 22.56588 0 0.8153876 0 0.6525278)
(1232.619 23.2779 0 0.8874262 0 0.6577023)
(1212.116 24.16014 0 0.9788283 0 0.6631338)
(1191.712 25.22181 0 1.093027 0 0.6686667)
(1171.611 26.46729 0 1.234133 0 0.6742076)
(1151.79 27.89638 0 1.406912 0 0.6797233)
(1132.068 29.50342 0 1.616674 0 0.685231)
(1112.164 31.276 0 1.8691 0 0.6907845)
(1091.739 33.194 0 2.169979 0 0.6964606)
(1070.441 35.22921 0 2.524883 0 0.7023461)
(1047.948 37.34565 0 2.93877 0 0.7085251)
(1024.001 39.50073 0 3.415561 0 0.7150691)
(998.4242 41.647 0 3.957716 0 0.7220288)
(971.1396 43.73421 0 4.565843 0 0.7294311)
(942.1591 45.71171 0 5.238371 0 0.7372784)
(911.5737 47.53055 0 5.971315 0 0.7455515)
(879.5344 49.14546 0 6.758157 0 0.7542142)
(846.231 50.51632 0 7.589837 0 0.763219)
(811.8717 51.60928 0 8.454862 0 0.7725126)
(776.6663 52.39732 0 9.339527 0 0.7820411)
(740.8134 52.86052 0 10.22824 0 0.7917532)
(704.4924 52.98591 0 11.10389 0 0.8016035)
(667.8576 52.7668 0 11.94812 0 0.8115532)
(631.0366 52.20207 0 12.74167 0 0.8215715)
(594.1314 51.29554 0 13.4647 0 0.8316345)
(557.2209 50.0553 0 14.09721 0 0.8417252)
(520.3646 48.49316 0 14.61946 0 0.8518321)
(483.6073 46.62412 0 15.01237 0 0.8619473)
(446.9848 44.46601 0 15.25809 0 0.8720657)
(410.5307 42.03935 0 15.34045 0 0.882182)
(374.2852 39.36749 0 15.24568 0 0.8922885)
(338.3064 36.4771 0 14.9632 0 0.9023719)
(302.685 33.39928 0 14.48676 0 0.9124081)
(267.5658 30.17163 0 13.81604 0 0.9223564)
(233.1759 26.84114 0 12.959 0 0.9321509)
(199.8576 23.46814 0 11.9349 0 0.9416907)
(168.0965 20.12984 0 10.77778 0 0.9508314)
(138.5196 16.92073 0 9.538531 0 0.9593861)
(111.8301 13.94556 0 8.282955 0 0.9671434)
(88.6599 11.30187 0 7.082815 0 0.9739111)
(69.37795 9.056283 0 6.000668 0 0.9795706)
(53.95928 7.226757 0 5.075134 0 0.9841176)
(42.00551 5.782849 0 4.315329 0 0.9876579)
(32.90121 4.663302 0 3.706952 0 0.9903641)
(25.99817 3.798456 0 3.224211 0 0.9924222)
(20.73555 3.125793 0 2.839969 0 0.9939955)
(16.67937 2.59588 0 2.530981 0 0.9952112)
(13.51261 2.17208 0 2.279189 0 0.9961631)
(11.00905 1.827961 0 2.071163 0 0.9969179)
(9.007742 1.544555 0 1.897059 0 0.9975233)
(7.393386 1.308178 0 1.749671 0 0.9980134)
(6.082401 1.108872 0 1.6237 0 0.9984132)
(5.01326 0.9392987 0 1.515211 0 0.9987407)
(4.14019 0.7940445 0 1.421346 0 0.9990096)
(3.427938 0.6689669 0 1.3399 0 0.9992302)
(2.847546 0.5606209 0 1.269009 0 0.9994111)
(2.375991 0.4660903 0 1.207575 0 0.9995592)
(1.996494 0.3831365 0 1.155538 0 0.999679)
(1.689652 0.3089232 0 1.110293 0 0.9997771)
(1.457856 0.2436886 0 1.077128 0 0.9998516)
(1.254575 0.1813947 0 1.038259 0 0.9999195)
(1.181259 0.13126 0 1.045575 0 0.9999366)
(0.9834543 0.07263259 0 0.9745447 0 0.9999997)
(1.043259 0.02585641 0 1.020526 0 0.9999824)
(1337.762 20.59571 0 0.6316868 0 0.6296179)
(1336.957 20.60002 0 0.6322291 0 0.6298269)
(1335.363 20.61276 0 0.6335019 0 0.6302749)
(1332.814 20.63747 0 0.6358391 0 0.6309996)
(1329.047 20.67876 0 0.6397631 0 0.6320466)
(1323.832 20.74462 0 0.6460265 0 0.6334623)
(1317.089 20.84814 0 0.65561 0 0.6352875)
(1308.885 21.00785 0 0.6697315 0 0.6375611)
(1299.167 21.24539 0 0.6899859 0 0.6403411)
(1286.982 21.57459 0 0.7187213 0 0.6437297)
(1271.327 22.00756 0 0.7599068 0 0.647809)
(1252.687 22.56588 0 0.8153876 0 0.6525278)
(1232.619 23.2779 0 0.8874262 0 0.6577023)
(1212.116 24.16014 0 0.9788283 0 0.6631338)
(1191.712 25.22181 0 1.093027 0 0.6686667)
(1171.611 26.46729 0 1.234133 0 0.6742076)
(1151.79 27.89638 0 1.406912 0 0.6797233)
(1132.068 29.50342 0 1.616674 0 0.685231)
(1112.164 31.276 0 1.8691 0 0.6907845)
(1091.739 33.194 0 2.169979 0 0.6964606)
(1070.441 35.22921 0 2.524883 0 0.7023461)
(1047.948 37.34565 0 2.93877 0 0.7085251)
(1024.001 39.50073 0 3.415561 0 0.7150691)
(998.4242 41.647 0 3.957716 0 0.7220288)
(971.1396 43.73421 0 4.565843 0 0.7294311)
(942.1591 45.71171 0 5.238371 0 0.7372784)
(911.5737 47.53055 0 5.971315 0 0.7455515)
(879.5344 49.14546 0 6.758157 0 0.7542142)
(846.231 50.51632 0 7.589837 0 0.763219)
(811.8717 51.60928 0 8.454862 0 0.7725126)
(776.6663 52.39732 0 9.339527 0 0.7820411)
(740.8134 52.86052 0 10.22824 0 0.7917532)
(704.4924 52.98591 0 11.10389 0 0.8016035)
(667.8576 52.7668 0 11.94812 0 0.8115532)
(631.0366 52.20207 0 12.74167 0 0.8215715)
(594.1314 51.29554 0 13.4647 0 0.8316345)
(557.2209 50.0553 0 14.09721 0 0.8417252)
(520.3646 48.49316 0 14.61946 0 0.8518321)
(483.6073 46.62412 0 15.01237 0 0.8619473)
(446.9848 44.46601 0 15.25809 0 0.8720657)
(410.5307 42.03935 0 15.34045 0 0.882182)
(374.2852 39.36749 0 15.24568 0 0.8922885)
(338.3064 36.4771 0 14.9632 0 0.9023719)
(302.685 33.39928 0 14.48676 0 0.9124081)
(267.5658 30.17163 0 13.81604 0 0.9223564)
(233.1759 26.84114 0 12.959 0 0.9321509)
(199.8576 23.46814 0 11.9349 0 0.9416907)
(168.0965 20.12984 0 10.77778 0 0.9508314)
(138.5196 16.92073 0 9.538531 0 0.9593861)
(111.8301 13.94556 0 8.282955 0 0.9671434)
(88.6599 11.30187 0 7.082815 0 0.9739111)
(69.37795 9.056283 0 6.000668 0 0.9795706)
(53.95928 7.226757 0 5.075134 0 0.9841176)
(42.00551 5.782849 0 4.315329 0 0.9876579)
(32.90121 4.663302 0 3.706952 0 0.9903641)
(25.99817 3.798456 0 3.224211 0 0.9924222)
(20.73555 3.125793 0 2.839969 0 0.9939955)
(16.67937 2.59588 0 2.530981 0 0.9952112)
(13.51261 2.17208 0 2.279189 0 0.9961631)
(11.00905 1.827961 0 2.071163 0 0.9969179)
(9.007742 1.544555 0 1.897059 0 0.9975233)
(7.393386 1.308178 0 1.749671 0 0.9980134)
(6.082401 1.108872 0 1.6237 0 0.9984132)
(5.01326 0.9392987 0 1.515211 0 0.9987407)
(4.14019 0.7940445 0 1.421346 0 0.9990096)
(3.427938 0.6689669 0 1.3399 0 0.9992302)
(2.847546 0.5606209 0 1.269009 0 0.9994111)
(2.375991 0.4660903 0 1.207575 0 0.9995592)
(1.996494 0.3831365 0 1.155538 0 0.999679)
(1.689652 0.3089232 0 1.110293 0 0.9997771)
(1.457856 0.2436886 0 1.077128 0 0.9998516)
(1.254575 0.1813947 0 1.038259 0 0.9999195)
(1.181259 0.13126 0 1.045575 0 0.9999366)
(0.9834543 0.07263259 0 0.9745447 0 0.9999997)
(1.043259 0.02585641 0 1.020526 0 0.9999824)
)
;
    }
    wall
    {
        type            zeroGradient;
    }
    frontAndBack
    {
        type            empty;
    }
    middle
    {
        type            symmetryPlane;
        value           nonuniform List<symmTensor> 2((1.04326 0 0 1.020526 0 0.9999829) (1.043258 0 0 1.020526 0 0.9999819));
    }
}


// ************************************************************************* //
