/*--------------------------------*- C++ -*----------------------------------*\
| =========                 |                                                 |
| \\      /  F ield         | foam-extend: Open Source CFD                    |
|  \\    /   O peration     | Version:     4.0                                |
|   \\  /    A nd           | Web:         http://www.foam-extend.org         |
|    \\/     M anipulation  |                                                 |
\*---------------------------------------------------------------------------*/
FoamFile
{
    version     2.0;
    format      ascii;
    class       volScalarField;
    location    "100";
    object      Ceps1;
}
// * * * * * * * * * * * * * * * * * * * * * * * * * * * * * * * * * * * * * //

dimensions      [0 0 0 0 0 0 0];

internalField   nonuniform List<scalar> 
150
(
6.712753
6.712753
3.890137
3.890137
3.048682
3.048681
2.65506
2.65506
2.429452
2.429452
2.284309
2.284309
2.183567
2.183567
2.109645
2.109645
2.052961
2.052961
2.007879
2.007879
1.971172
1.971172
1.93999
1.93999
1.912477
1.912477
1.887531
1.887531
1.864496
1.864496
1.842981
1.842981
1.822751
1.822751
1.803662
1.803662
1.785625
1.785625
1.768583
1.768583
1.752492
1.752492
1.73732
1.73732
1.723035
1.723035
1.709609
1.709609
1.69701
1.69701
1.685206
1.685206
1.674162
1.674162
1.663842
1.663842
1.654208
1.654208
1.645222
1.645222
1.636845
1.636845
1.629037
1.629037
1.621758
1.621758
1.614972
1.614972
1.608643
1.608643
1.602737
1.602737
1.597223
1.597223
1.592071
1.592071
1.587256
1.587256
1.582751
1.582751
1.578532
1.578532
1.574577
1.574577
1.570865
1.570865
1.567375
1.567375
1.564086
1.564086
1.560981
1.560981
1.55804
1.55804
1.555244
1.555244
1.552576
1.552576
1.550019
1.550019
1.547556
1.547556
1.545172
1.545172
1.542853
1.542853
1.540588
1.540588
1.538365
1.538365
1.536176
1.536176
1.534012
1.534012
1.531867
1.531867
1.529734
1.529734
1.527611
1.527611
1.525497
1.525497
1.523396
1.523396
1.521317
1.521317
1.519277
1.519277
1.517305
1.517305
1.515443
1.515443
1.513753
1.513753
1.512245
1.512245
1.510899
1.510899
1.509707
1.509707
1.508667
1.508667
1.507789
1.507789
1.50709
1.50709
1.506592
1.506592
1.506325
1.506325
)
;

boundaryField
{
    leftandright
    {
        type            cyclic;
        value           nonuniform List<scalar> 
150
(
6.712753
3.890137
3.048682
2.65506
2.429452
2.284309
2.183567
2.109645
2.052961
2.007879
1.971172
1.93999
1.912477
1.887531
1.864496
1.842981
1.822751
1.803662
1.785625
1.768583
1.752492
1.73732
1.723035
1.709609
1.69701
1.685206
1.674162
1.663842
1.654208
1.645222
1.636845
1.629037
1.621758
1.614972
1.608643
1.602737
1.597223
1.592071
1.587256
1.582751
1.578532
1.574577
1.570865
1.567375
1.564086
1.560981
1.55804
1.555244
1.552576
1.550019
1.547556
1.545172
1.542853
1.540588
1.538365
1.536176
1.534012
1.531867
1.529734
1.527611
1.525497
1.523396
1.521317
1.519277
1.517305
1.515443
1.513753
1.512245
1.510899
1.509707
1.508667
1.507789
1.50709
1.506592
1.506325
6.712753
3.890137
3.048682
2.65506
2.429452
2.284309
2.183567
2.109645
2.052961
2.007879
1.971172
1.93999
1.912477
1.887531
1.864496
1.842981
1.822751
1.803662
1.785625
1.768583
1.752492
1.73732
1.723035
1.709609
1.69701
1.685206
1.674162
1.663842
1.654208
1.645222
1.636845
1.629037
1.621758
1.614972
1.608643
1.602737
1.597223
1.592071
1.587256
1.582751
1.578532
1.574577
1.570865
1.567375
1.564086
1.560981
1.55804
1.555244
1.552576
1.550019
1.547556
1.545172
1.542853
1.540588
1.538365
1.536176
1.534012
1.531867
1.529734
1.527611
1.525497
1.523396
1.521317
1.519277
1.517305
1.515443
1.513753
1.512245
1.510899
1.509707
1.508667
1.507789
1.50709
1.506592
1.506325
)
;
    }
    wall
    {
        type            calculated;
        value           uniform 1.463;
    }
    frontAndBack
    {
        type            empty;
    }
    middle
    {
        type            symmetryPlane;
        value           nonuniform List<scalar> 2(1.506325 1.506325);
    }
}


// ************************************************************************* //
