/*--------------------------------*- C++ -*----------------------------------*\
| =========                 |                                                 |
| \\      /  F ield         | foam-extend: Open Source CFD                    |
|  \\    /   O peration     | Version:     4.0                                |
|   \\  /    A nd           | Web:         http://www.foam-extend.org         |
|    \\/     M anipulation  |                                                 |
\*---------------------------------------------------------------------------*/
FoamFile
{
    version     2.0;
    format      ascii;
    class       volSymmTensorField;
    location    "100";
    object      DiffC;
}
// * * * * * * * * * * * * * * * * * * * * * * * * * * * * * * * * * * * * * //

dimensions      [0 0 -1 0 0 0 0];

internalField   nonuniform List<symmTensor> 
150
(
(-50.62276 0.2711174 0 0.03409851 0 0.01314048)
(-50.60279 0.2710594 0 0.03409635 0 0.01314205)
(-42.53918 0.4668335 0 0.03998841 0 0.01299368)
(-42.55582 0.4671521 0 0.03999339 0 0.01299042)
(-45.00293 0.5832277 0 0.05148135 0 0.01307871)
(-45.01309 0.5834736 0 0.05148509 0 0.01307591)
(-50.71413 0.7137127 0 0.06840486 0 0.01329587)
(-50.71398 0.713841 0 0.06840674 0 0.01329465)
(-52.98287 0.9476852 0 0.09025444 0 0.01329971)
(-52.97688 0.9476947 0 0.09025451 0 0.01330045)
(-48.19713 1.309939 0 0.1145801 0 0.0128788)
(-48.19172 1.30987 0 0.1145791 0 0.01288049)
(-38.56697 1.759997 0 0.1399446 0 0.01227371)
(-38.56491 1.759903 0 0.1399434 0 0.01227501)
(-34.25931 2.179342 0 0.1693081 0 0.01220783)
(-34.26016 2.179264 0 0.1693074 0 0.01220839)
(-55.80389 2.252351 0 0.2108652 0 0.0132106)
(-55.80665 2.252308 0 0.2108653 0 0.01321089)
(-72.96999 2.228245 0 0.2814802 0 0.0132664)
(-72.97273 2.228224 0 0.2814808 0 0.01326657)
(-50.68557 2.395121 0 0.2828198 0 0.009998533)
(-50.68589 2.395102 0 0.2828202 0 0.009998305)
(-9.982185 2.628057 0 0.2881456 0 0.004505524)
(-9.980969 2.628033 0 0.2881458 0 0.004505137)
(11.22662 2.543529 0 0.2980466 0 -0.000142711)
(11.22689 2.54351 0 0.2980469 0 -0.0001428336)
(19.73189 2.311073 0 0.3117883 0 -0.003032013)
(19.72851 2.311066 0 0.311789 0 -0.003031531)
(20.95491 2.017095 0 0.3280927 0 -0.004279545)
(20.95487 2.017069 0 0.3280924 0 -0.004279576)
(18.41601 1.69053 0 0.3447088 0 -0.004344235)
(18.41673 1.690494 0 0.3447079 0 -0.00434434)
(14.19846 1.33801 0 0.3590997 0 -0.003699336)
(14.1996 1.337976 0 0.3590985 0 -0.003699392)
(9.53212 0.9628977 0 0.3687772 0 -0.00272235)
(9.534617 0.9628693 0 0.3687759 0 -0.002722489)
(5.185052 0.5728941 0 0.3715096 0 -0.001684033)
(5.182598 0.572904 0 0.3715101 0 -0.001684165)
(1.623351 0.181272 0 0.3655139 0 -0.0007639518)
(1.622171 0.1812689 0 0.3655133 0 -0.0007634026)
(-0.9108052 -0.195105 0 0.3496356 0 -6.186452e-05)
(-0.9116406 -0.1950887 0 0.3496371 0 -6.202247e-05)
(-2.362465 -0.5387543 0 0.3234873 0 0.0003798244)
(-2.365215 -0.5387431 0 0.3234881 0 0.0003799148)
(-2.842301 -0.8343805 0 0.2874992 0 0.0005707071)
(-2.838964 -0.8344232 0 0.2874956 0 0.000570088)
(-2.54393 -1.07113 0 0.2428632 0 0.0005509119)
(-2.544301 -1.071139 0 0.2428622 0 0.0005514518)
(-1.730703 -1.2433 0 0.1914165 0 0.0003830633)
(-1.73108 -1.243301 0 0.1914163 0 0.0003828445)
(-0.6425554 -1.350655 0 0.1354211 0 0.0001283536)
(-0.6423414 -1.350661 0 0.1354204 0 0.0001282141)
(0.5147266 -1.397435 0 0.07735291 0 -0.0001564318)
(0.5149463 -1.397438 0 0.07735292 0 -0.0001567106)
(1.591182 -1.391246 0 0.01967964 0 -0.0004292851)
(1.590678 -1.391253 0 0.019678 0 -0.0004288312)
(2.492181 -1.341702 0 -0.03533469 0 -0.0006606773)
(2.492511 -1.341715 0 -0.03533693 0 -0.0006611601)
(3.176454 -1.259126 0 -0.08576093 0 -0.0008382293)
(3.175969 -1.259138 0 -0.0857628 0 -0.000838029)
(3.63885 -1.153325 0 -0.1300461 0 -0.0009582033)
(3.639074 -1.153317 0 -0.1300489 0 -0.0009582251)
(3.900832 -1.033498 0 -0.1672237 0 -0.001024401)
(3.900916 -1.033506 0 -0.1672211 0 -0.001024418)
(3.992172 -0.9080849 0 -0.1971128 0 -0.001045526)
(3.991931 -0.908029 0 -0.1970983 0 -0.001045378)
(3.949649 -0.783248 0 -0.2197829 0 -0.001030522)
(3.949802 -0.7833016 0 -0.2197976 0 -0.001031042)
(3.811218 -0.6634088 0 -0.2354794 0 -0.0009906856)
(3.811163 -0.6634195 0 -0.2354827 0 -0.0009903901)
(3.609494 -0.551395 0 -0.2446015 0 -0.0009338955)
(3.609278 -0.5513984 0 -0.2446029 0 -0.0009337415)
(3.370693 -0.4489435 0 -0.2476417 0 -0.0008675236)
(3.370523 -0.4489373 0 -0.2476413 0 -0.0008677786)
(3.116639 -0.3569202 0 -0.2452497 0 -0.0007989031)
(3.116833 -0.3569166 0 -0.2452437 0 -0.0007988043)
(2.864876 -0.2753534 0 -0.2380051 0 -0.0007310919)
(2.864798 -0.2753745 0 -0.2380161 0 -0.0007311813)
(2.627539 -0.2037473 0 -0.2265277 0 -0.0006688124)
(2.627328 -0.2037712 0 -0.2265332 0 -0.0006685877)
(2.414906 -0.141227 0 -0.2113525 0 -0.0006139936)
(2.414849 -0.1412274 0 -0.2113543 0 -0.0006141583)
(2.235656 -0.0864799 0 -0.1929168 0 -0.0005694461)
(2.235695 -0.0864687 0 -0.1929118 0 -0.0005693406)
(2.097323 -0.03788206 0 -0.1714191 0 -0.0005371715)
(2.097141 -0.03790445 0 -0.1714299 0 -0.0005371321)
(2.007597 0.006472495 0 -0.1468496 0 -0.0005192641)
(2.007568 0.006458982 0 -0.1468503 0 -0.0005192321)
(1.974704 0.04862101 0 -0.1189262 0 -0.0005181229)
(1.974529 0.04860369 0 -0.1189373 0 -0.0005180814)
(2.003329 0.09043041 0 -0.08725163 0 -0.0005347934)
(2.003157 0.09041037 0 -0.08726305 0 -0.0005348051)
(2.08915 0.1327133 0 -0.05170332 0 -0.0005682747)
(2.089179 0.1327143 0 -0.05170247 0 -0.0005681203)
(2.208565 0.173919 0 -0.01332995 0 -0.0006108714)
(2.208344 0.1738981 0 -0.01333427 0 -0.000610918)
(2.309476 0.2089185 0 0.02468637 0 -0.0006481491)
(2.309393 0.208913 0 0.02467776 0 -0.0006480475)
(2.320505 0.2297718 0 0.05683846 0 -0.0006587352)
(2.32042 0.2297596 0 0.05683274 0 -0.000658639)
(2.181571 0.2293305 0 0.07712887 0 -0.0006253395)
(2.181514 0.2293215 0 0.07712405 0 -0.0006253349)
(1.887484 0.206638 0 0.08249623 0 -0.000545706)
(1.887442 0.206634 0 0.08249326 0 -0.0005456024)
(1.498445 0.1688103 0 0.07505807 0 -0.0004365445)
(1.498429 0.1688075 0 0.07505619 0 -0.0004366255)
(1.103516 0.1269718 0 0.06067438 0 -0.0003237322)
(1.103504 0.126971 0 0.06067361 0 -0.0003236827)
(0.7696766 0.09003221 0 0.04523802 0 -0.000226983)
(0.769663 0.09003057 0 0.04523716 0 -0.0002269378)
(0.5207273 0.06175481 0 0.0321789 0 -0.0001541351)
(0.5207252 0.06175445 0 0.03217815 0 -0.0001541522)
(0.3488703 0.04188369 0 0.02243795 0 -0.0001035551)
(0.348868 0.04188332 0 0.022438 0 -0.0001035497)
(0.2347243 0.02850681 0 0.01562079 0 -6.978127e-05)
(0.2347216 0.02850682 0 0.01562098 0 -6.977582e-05)
(0.1598204 0.01963116 0 0.01097097 0 -4.759899e-05)
(0.1598208 0.01963104 0 0.01097047 0 -4.759364e-05)
(0.1104962 0.01372828 0 0.007811962 0 -3.296614e-05)
(0.1104938 0.01372814 0 0.007811832 0 -3.296094e-05)
(0.07763847 0.009761995 0 0.005651593 0 -2.319728e-05)
(0.07763836 0.009761805 0 0.005651674 0 -2.319286e-05)
(0.05542557 0.007059868 0 0.004158215 0 -1.65877e-05)
(0.05542559 0.007060079 0 0.00415826 0 -1.658417e-05)
(0.04015182 0.005189895 0 0.003109819 0 -1.20466e-05)
(0.04015162 0.005189601 0 0.003109769 0 -1.204349e-05)
(0.02950122 0.003881338 0 0.002373149 0 -8.87129e-06)
(0.02950104 0.003881409 0 0.002373166 0 -8.867365e-06)
(0.02188001 0.002939547 0 0.001833707 0 -6.60365e-06)
(0.02188021 0.002939539 0 0.001833708 0 -6.606859e-06)
(0.01622009 0.002229126 0 0.001418703 0 -4.926143e-06)
(0.01621975 0.002229113 0 0.001418695 0 -4.887301e-06)
(0.01208416 0.001688549 0 0.001141327 0 -3.681192e-06)
(0.01208423 0.00168853 0 0.001141307 0 -3.674427e-06)
(0.009173358 0.001295798 0 0.0009899832 0 -2.813979e-06)
(0.009172899 0.00129574 0 0.0009899382 0 -2.835403e-06)
(0.006579563 0.0009278515 0 0.000675646 0 -1.944532e-06)
(0.006579426 0.0009277523 0 0.0006755883 0 -2.048875e-06)
(0.005869711 0.0008262866 0 0.000931134 0 -1.757096e-06)
(0.005869594 0.0008262332 0 0.0009310514 0 -1.933678e-06)
(0.002363218 0.0003673864 0 -0.000234803 0 -5.210881e-07)
(0.002363587 0.0003674695 0 -0.0002346025 0 -7.067311e-07)
(0.007438397 0.0008130663 0 0.002552991 0 -2.989308e-06)
(0.00743883 0.0008132792 0 0.002553004 0 -2.761514e-06)
(-0.005791914 -0.0002844543 0 -0.003776376 0 1.817887e-06)
(-0.005791871 -0.0002844769 0 -0.00377598 0 2.515995e-06)
(0.01162381 0.0006447129 0 0.00523807 0 -3.450769e-06)
(0.01162365 0.0006445989 0 0.005237917 0 -3.81222e-06)
(-0.002470469 -0.0001520271 0 -0.001899364 0 5.983929e-07)
(-0.002470129 -0.0001519304 0 -0.001899247 0 8.297027e-07)
)
;

boundaryField
{
    leftandright
    {
        type            cyclic;
        value           nonuniform List<symmTensor> 
150
(
(-50.61277 0.2710884 0 0.03409743 0 0.01314127)
(-42.5475 0.4669928 0 0.0399909 0 0.01299205)
(-45.00801 0.5833507 0 0.05148322 0 0.01307731)
(-50.71406 0.7137769 0 0.0684058 0 0.01329526)
(-52.97987 0.9476899 0 0.09025447 0 0.01330008)
(-48.19443 1.309905 0 0.1145796 0 0.01287965)
(-38.56594 1.75995 0 0.139944 0 0.01227436)
(-34.25974 2.179303 0 0.1693077 0 0.01220811)
(-55.80527 2.25233 0 0.2108652 0 0.01321075)
(-72.97136 2.228235 0 0.2814805 0 0.01326649)
(-50.68573 2.395111 0 0.28282 0 0.009998419)
(-9.981577 2.628045 0 0.2881457 0 0.00450533)
(11.22676 2.54352 0 0.2980468 0 -0.0001427723)
(19.7302 2.31107 0 0.3117887 0 -0.003031772)
(20.95489 2.017082 0 0.3280925 0 -0.004279561)
(18.41637 1.690512 0 0.3447083 0 -0.004344288)
(14.19903 1.337993 0 0.3590991 0 -0.003699364)
(9.533368 0.9628835 0 0.3687766 0 -0.00272242)
(5.183825 0.5728991 0 0.3715098 0 -0.001684099)
(1.622761 0.1812705 0 0.3655136 0 -0.0007636772)
(-0.9112229 -0.1950968 0 0.3496363 0 -6.19435e-05)
(-2.36384 -0.5387487 0 0.3234877 0 0.0003798696)
(-2.840633 -0.8344018 0 0.2874974 0 0.0005703976)
(-2.544115 -1.071134 0 0.2428627 0 0.0005511818)
(-1.730892 -1.2433 0 0.1914164 0 0.0003829539)
(-0.6424484 -1.350658 0 0.1354207 0 0.0001282838)
(0.5148365 -1.397437 0 0.07735292 0 -0.0001565712)
(1.59093 -1.391249 0 0.01967882 0 -0.0004290582)
(2.492346 -1.341708 0 -0.03533581 0 -0.0006609187)
(3.176212 -1.259132 0 -0.08576187 0 -0.0008381292)
(3.638962 -1.153321 0 -0.1300475 0 -0.0009582142)
(3.900874 -1.033502 0 -0.1672224 0 -0.001024409)
(3.992051 -0.9080569 0 -0.1971056 0 -0.001045452)
(3.949726 -0.7832748 0 -0.2197902 0 -0.001030782)
(3.811191 -0.6634142 0 -0.2354811 0 -0.0009905379)
(3.609386 -0.5513967 0 -0.2446022 0 -0.0009338185)
(3.370608 -0.4489404 0 -0.2476415 0 -0.0008676511)
(3.116736 -0.3569184 0 -0.2452467 0 -0.0007988537)
(2.864837 -0.275364 0 -0.2380106 0 -0.0007311366)
(2.627433 -0.2037593 0 -0.2265304 0 -0.0006687)
(2.414877 -0.1412272 0 -0.2113534 0 -0.0006140759)
(2.235675 -0.0864743 0 -0.1929143 0 -0.0005693933)
(2.097232 -0.03789325 0 -0.1714245 0 -0.0005371518)
(2.007583 0.006465738 0 -0.1468499 0 -0.0005192481)
(1.974616 0.04861235 0 -0.1189318 0 -0.0005181021)
(2.003243 0.09042039 0 -0.08725734 0 -0.0005347993)
(2.089164 0.1327138 0 -0.05170289 0 -0.0005681975)
(2.208455 0.1739085 0 -0.01333211 0 -0.0006108947)
(2.309435 0.2089158 0 0.02468206 0 -0.0006480983)
(2.320463 0.2297657 0 0.0568356 0 -0.0006586871)
(2.181543 0.229326 0 0.07712646 0 -0.0006253372)
(1.887463 0.206636 0 0.08249474 0 -0.0005456542)
(1.498437 0.1688089 0 0.07505713 0 -0.000436585)
(1.10351 0.1269714 0 0.06067399 0 -0.0003237075)
(0.7696698 0.09003139 0 0.04523759 0 -0.0002269604)
(0.5207263 0.06175463 0 0.03217852 0 -0.0001541437)
(0.3488692 0.0418835 0 0.02243798 0 -0.0001035524)
(0.2347229 0.02850682 0 0.01562089 0 -6.977854e-05)
(0.1598206 0.0196311 0 0.01097072 0 -4.759632e-05)
(0.110495 0.01372821 0 0.007811897 0 -3.296354e-05)
(0.07763841 0.0097619 0 0.005651633 0 -2.319507e-05)
(0.05542558 0.007059973 0 0.004158237 0 -1.658593e-05)
(0.04015172 0.005189748 0 0.003109794 0 -1.204505e-05)
(0.02950113 0.003881374 0 0.002373157 0 -8.869327e-06)
(0.02188011 0.002939543 0 0.001833708 0 -6.605254e-06)
(0.01621992 0.00222912 0 0.001418699 0 -4.906722e-06)
(0.01208419 0.001688539 0 0.001141317 0 -3.677809e-06)
(0.009173128 0.001295769 0 0.0009899607 0 -2.824691e-06)
(0.006579494 0.0009278019 0 0.0006756171 0 -1.996703e-06)
(0.005869652 0.0008262599 0 0.0009310927 0 -1.845387e-06)
(0.002363403 0.0003674279 0 -0.0002347027 0 -6.139096e-07)
(0.007438613 0.0008131728 0 0.002552997 0 -2.875411e-06)
(-0.005791892 -0.0002844656 0 -0.003776178 0 2.166941e-06)
(0.01162373 0.0006446559 0 0.005237993 0 -3.631494e-06)
(-0.002470299 -0.0001519787 0 -0.001899306 0 7.140478e-07)
(-50.61277 0.2710884 0 0.03409743 0 0.01314127)
(-42.5475 0.4669928 0 0.0399909 0 0.01299205)
(-45.00801 0.5833507 0 0.05148322 0 0.01307731)
(-50.71406 0.7137769 0 0.0684058 0 0.01329526)
(-52.97987 0.9476899 0 0.09025447 0 0.01330008)
(-48.19443 1.309905 0 0.1145796 0 0.01287965)
(-38.56594 1.75995 0 0.139944 0 0.01227436)
(-34.25974 2.179303 0 0.1693077 0 0.01220811)
(-55.80527 2.25233 0 0.2108652 0 0.01321075)
(-72.97136 2.228235 0 0.2814805 0 0.01326649)
(-50.68573 2.395111 0 0.28282 0 0.009998419)
(-9.981577 2.628045 0 0.2881457 0 0.00450533)
(11.22676 2.54352 0 0.2980468 0 -0.0001427723)
(19.7302 2.31107 0 0.3117887 0 -0.003031772)
(20.95489 2.017082 0 0.3280925 0 -0.004279561)
(18.41637 1.690512 0 0.3447083 0 -0.004344288)
(14.19903 1.337993 0 0.3590991 0 -0.003699364)
(9.533368 0.9628835 0 0.3687766 0 -0.00272242)
(5.183825 0.5728991 0 0.3715098 0 -0.001684099)
(1.622761 0.1812705 0 0.3655136 0 -0.0007636772)
(-0.9112229 -0.1950968 0 0.3496363 0 -6.19435e-05)
(-2.36384 -0.5387487 0 0.3234877 0 0.0003798696)
(-2.840633 -0.8344018 0 0.2874974 0 0.0005703976)
(-2.544115 -1.071134 0 0.2428627 0 0.0005511818)
(-1.730892 -1.2433 0 0.1914164 0 0.0003829539)
(-0.6424484 -1.350658 0 0.1354207 0 0.0001282838)
(0.5148365 -1.397437 0 0.07735292 0 -0.0001565712)
(1.59093 -1.391249 0 0.01967882 0 -0.0004290582)
(2.492346 -1.341708 0 -0.03533581 0 -0.0006609187)
(3.176212 -1.259132 0 -0.08576187 0 -0.0008381292)
(3.638962 -1.153321 0 -0.1300475 0 -0.0009582142)
(3.900874 -1.033502 0 -0.1672224 0 -0.001024409)
(3.992051 -0.9080569 0 -0.1971056 0 -0.001045452)
(3.949726 -0.7832748 0 -0.2197902 0 -0.001030782)
(3.811191 -0.6634142 0 -0.2354811 0 -0.0009905379)
(3.609386 -0.5513967 0 -0.2446022 0 -0.0009338185)
(3.370608 -0.4489404 0 -0.2476415 0 -0.0008676511)
(3.116736 -0.3569184 0 -0.2452467 0 -0.0007988537)
(2.864837 -0.275364 0 -0.2380106 0 -0.0007311366)
(2.627433 -0.2037593 0 -0.2265304 0 -0.0006687)
(2.414877 -0.1412272 0 -0.2113534 0 -0.0006140759)
(2.235675 -0.0864743 0 -0.1929143 0 -0.0005693933)
(2.097232 -0.03789325 0 -0.1714245 0 -0.0005371518)
(2.007583 0.006465738 0 -0.1468499 0 -0.0005192481)
(1.974616 0.04861235 0 -0.1189318 0 -0.0005181021)
(2.003243 0.09042039 0 -0.08725734 0 -0.0005347993)
(2.089164 0.1327138 0 -0.05170289 0 -0.0005681975)
(2.208455 0.1739085 0 -0.01333211 0 -0.0006108947)
(2.309435 0.2089158 0 0.02468206 0 -0.0006480983)
(2.320463 0.2297657 0 0.0568356 0 -0.0006586871)
(2.181543 0.229326 0 0.07712646 0 -0.0006253372)
(1.887463 0.206636 0 0.08249474 0 -0.0005456542)
(1.498437 0.1688089 0 0.07505713 0 -0.000436585)
(1.10351 0.1269714 0 0.06067399 0 -0.0003237075)
(0.7696698 0.09003139 0 0.04523759 0 -0.0002269604)
(0.5207263 0.06175463 0 0.03217852 0 -0.0001541437)
(0.3488692 0.0418835 0 0.02243798 0 -0.0001035524)
(0.2347229 0.02850682 0 0.01562089 0 -6.977854e-05)
(0.1598206 0.0196311 0 0.01097072 0 -4.759632e-05)
(0.110495 0.01372821 0 0.007811897 0 -3.296354e-05)
(0.07763841 0.0097619 0 0.005651633 0 -2.319507e-05)
(0.05542558 0.007059973 0 0.004158237 0 -1.658593e-05)
(0.04015172 0.005189748 0 0.003109794 0 -1.204505e-05)
(0.02950113 0.003881374 0 0.002373157 0 -8.869327e-06)
(0.02188011 0.002939543 0 0.001833708 0 -6.605254e-06)
(0.01621992 0.00222912 0 0.001418699 0 -4.906722e-06)
(0.01208419 0.001688539 0 0.001141317 0 -3.677809e-06)
(0.009173128 0.001295769 0 0.0009899607 0 -2.824691e-06)
(0.006579494 0.0009278019 0 0.0006756171 0 -1.996703e-06)
(0.005869652 0.0008262599 0 0.0009310927 0 -1.845387e-06)
(0.002363403 0.0003674279 0 -0.0002347027 0 -6.139096e-07)
(0.007438613 0.0008131728 0 0.002552997 0 -2.875411e-06)
(-0.005791892 -0.0002844656 0 -0.003776178 0 2.166941e-06)
(0.01162373 0.0006446559 0 0.005237993 0 -3.631494e-06)
(-0.002470299 -0.0001519787 0 -0.001899306 0 7.140478e-07)
)
;
    }
    wall
    {
        type            calculated;
        value           nonuniform List<symmTensor> 2((-50.62276 0.2711174 0 0.03409851 0 0.01314048) (-50.60279 0.2710594 0 0.03409635 0 0.01314205));
    }
    frontAndBack
    {
        type            empty;
    }
    middle
    {
        type            symmetryPlane;
        value           nonuniform List<symmTensor> 2((-0.002470469 0 0 -0.001899364 0 5.983929e-07) (-0.002470129 0 0 -0.001899247 0 8.297027e-07));
    }
}


// ************************************************************************* //
