/*--------------------------------*- C++ -*----------------------------------*\
| =========                 |                                                 |
| \\      /  F ield         | foam-extend: Open Source CFD                    |
|  \\    /   O peration     | Version:     4.0                                |
|   \\  /    A nd           | Web:         http://www.foam-extend.org         |
|    \\/     M anipulation  |                                                 |
\*---------------------------------------------------------------------------*/
FoamFile
{
    version     2.0;
    format      ascii;
    class       volScalarField;
    location    "100";
    object      epsilonV;
}
// * * * * * * * * * * * * * * * * * * * * * * * * * * * * * * * * * * * * * //

dimensions      [0 2 -3 0 0 0 0];

internalField   nonuniform List<scalar> 
150
(
4.745521e-06
4.745509e-06
0.0002455544
0.0002455538
0.001565701
0.001565697
0.005390456
0.005390445
0.013451
0.01345098
0.02732846
0.02732844
0.04796575
0.04796574
0.07543022
0.07543023
0.109082
0.1090821
0.1473078
0.1473079
0.2160526
0.2160529
0.2953761
0.2953766
0.3846887
0.3846893
0.4835284
0.4835293
0.5916939
0.591695
0.7090308
0.7090322
0.8352482
0.8352498
0.969758
0.9697597
1.111541
1.111542
1.259056
1.259058
1.410222
1.410224
1.562468
1.56247
1.712865
1.712867
1.858303
1.858305
1.995692
1.995694
2.122144
2.122146
2.235121
2.235123
2.332531
2.332533
2.412768
2.41277
2.474708
2.47471
2.517677
2.517678
2.541396
2.541398
2.54593
2.545932
2.531599
2.531601
2.498924
2.498926
2.448587
2.448589
2.381399
2.381401
2.298284
2.298286
2.200268
2.200271
2.088481
2.088484
1.964166
1.964169
1.828697
1.8287
1.683614
1.683618
1.530683
1.530687
1.37198
1.371984
1.210015
1.210019
1.047879
1.047882
0.8893566
0.88936
0.7388819
0.7388846
0.6011459
0.6011484
0.4802817
0.4802837
0.3788331
0.3788346
0.2970792
0.2970801
0.2331852
0.2331858
0.1840771
0.1840775
0.1464504
0.1464506
0.1174234
0.1174235
0.09475738
0.09475744
0.0768119
0.07681194
0.06241259
0.06241262
0.05072112
0.05072114
0.04113489
0.04113489
0.03321572
0.03321574
0.02664012
0.02664012
0.02116779
0.02116779
0.01661316
0.01661316
0.01282138
0.01282138
0.009675252
0.009675258
0.00709637
0.007096378
0.004964502
0.004964505
0.003346564
0.003346558
0.001836689
0.001836679
0.001445839
0.001445838
-0.0002821494
-0.0002821478
0.0004112065
0.0004112057
)
;

boundaryField
{
    leftandright
    {
        type            cyclic;
        value           nonuniform List<scalar> 
150
(
4.745515e-06
0.0002455541
0.001565699
0.00539045
0.01345099
0.02732845
0.04796575
0.07543022
0.109082
0.1473078
0.2160527
0.2953764
0.384689
0.4835288
0.5916945
0.7090315
0.835249
0.9697588
1.111541
1.259057
1.410223
1.562469
1.712866
1.858304
1.995693
2.122145
2.235122
2.332532
2.412769
2.474709
2.517678
2.541397
2.545931
2.5316
2.498925
2.448588
2.3814
2.298285
2.200269
2.088483
1.964168
1.828698
1.683616
1.530685
1.371982
1.210017
1.047881
0.8893583
0.7388832
0.6011471
0.4802827
0.3788339
0.2970797
0.2331855
0.1840773
0.1464505
0.1174234
0.09475741
0.07681192
0.0624126
0.05072113
0.04113489
0.03321573
0.02664012
0.02116779
0.01661316
0.01282138
0.009675255
0.007096374
0.004964503
0.003346561
0.001836684
0.001445838
-0.0002821486
0.0004112061
4.745515e-06
0.0002455541
0.001565699
0.00539045
0.01345099
0.02732845
0.04796575
0.07543022
0.109082
0.1473078
0.2160527
0.2953764
0.384689
0.4835288
0.5916945
0.7090315
0.835249
0.9697588
1.111541
1.259057
1.410223
1.562469
1.712866
1.858304
1.995693
2.122145
2.235122
2.332532
2.412769
2.474709
2.517678
2.541397
2.545931
2.5316
2.498925
2.448588
2.3814
2.298285
2.200269
2.088483
1.964168
1.828698
1.683616
1.530685
1.371982
1.210017
1.047881
0.8893583
0.7388832
0.6011471
0.4802827
0.3788339
0.2970797
0.2331855
0.1840773
0.1464505
0.1174234
0.09475741
0.07681192
0.0624126
0.05072113
0.04113489
0.03321573
0.02664012
0.02116779
0.01661316
0.01282138
0.009675255
0.007096374
0.004964503
0.003346561
0.001836684
0.001445838
-0.0002821486
0.0004112061
)
;
    }
    wall
    {
        type            calculated;
        value           nonuniform List<scalar> 2(1.046312e-09 1.046309e-09);
    }
    frontAndBack
    {
        type            empty;
    }
    middle
    {
        type            symmetryPlane;
        value           nonuniform List<scalar> 2(0.0004112065 0.0004112057);
    }
}


// ************************************************************************* //
