/*--------------------------------*- C++ -*----------------------------------*\
| =========                 |                                                 |
| \\      /  F ield         | foam-extend: Open Source CFD                    |
|  \\    /   O peration     | Version:     4.0                                |
|   \\  /    A nd           | Web:         http://www.foam-extend.org         |
|    \\/     M anipulation  |                                                 |
\*---------------------------------------------------------------------------*/
FoamFile
{
    version     2.0;
    format      ascii;
    class       volScalarField;
    location    "100";
    object      epsilon;
}
// * * * * * * * * * * * * * * * * * * * * * * * * * * * * * * * * * * * * * //

dimensions      [0 2 -3 0 0 0 0];

internalField   nonuniform List<scalar> 
150
(
56.24861
56.24861
49.6046
49.6046
44.3324
44.3324
40.37412
40.37413
37.69124
37.69124
36.25052
36.25052
36.00892
36.00892
36.90217
36.90217
38.84162
38.84162
41.72118
41.72118
45.42504
45.42504
49.46396
49.46397
53.43327
53.43327
57.00063
57.00063
59.91634
59.91634
62.01811
62.01812
63.22829
63.22829
63.54392
63.54393
63.02183
63.02183
61.76123
61.76123
59.88651
59.88651
57.53202
57.53202
54.83002
54.83002
51.90214
51.90214
48.85419
48.85419
45.77382
45.77382
42.73021
42.73021
39.77539
39.77539
36.94622
36.94622
34.26688
34.26688
31.75134
31.75134
29.40564
29.40564
27.22994
27.22994
25.22019
25.22019
23.36944
23.36944
21.66889
21.66889
20.10869
20.10869
18.67844
18.67844
17.36767
17.36767
16.16604
16.16604
15.06359
15.0636
14.05081
14.05081
13.11869
13.11869
12.25878
12.25878
11.46316
11.46316
10.72448
10.72448
10.03592
10.03592
9.391222
9.391222
8.784761
8.784761
8.211564
8.211564
7.667403
7.667403
7.148853
7.148853
6.653292
6.653292
6.178846
6.178846
5.724273
5.724273
5.288818
5.288818
4.872085
4.872085
4.473936
4.473936
4.094422
4.094422
3.733732
3.733732
3.39217
3.39217
3.070123
3.070123
2.768037
2.768037
2.486382
2.486382
2.22561
2.22561
1.986097
1.986097
1.768092
1.768092
1.571804
1.571804
1.39755
1.39755
1.245759
1.245759
1.116915
1.116915
1.011549
1.011549
0.9303045
0.9303045
0.8741392
0.8741392
0.8446189
0.8446188
)
;

boundaryField
{
    leftandright
    {
        type            cyclic;
        value           nonuniform List<scalar> 
150
(
56.24861
49.6046
44.3324
40.37413
37.69124
36.25052
36.00892
36.90217
38.84162
41.72118
45.42504
49.46396
53.43327
57.00063
59.91634
62.01812
63.22829
63.54392
63.02183
61.76123
59.88651
57.53202
54.83002
51.90214
48.85419
45.77382
42.73021
39.77539
36.94622
34.26688
31.75134
29.40564
27.22994
25.22019
23.36944
21.66889
20.10869
18.67844
17.36767
16.16604
15.06359
14.05081
13.11869
12.25878
11.46316
10.72448
10.03592
9.391222
8.784761
8.211564
7.667403
7.148853
6.653292
6.178846
5.724273
5.288818
4.872085
4.473936
4.094422
3.733732
3.39217
3.070123
2.768037
2.486382
2.22561
1.986097
1.768092
1.571804
1.39755
1.245759
1.116915
1.011549
0.9303045
0.8741392
0.8446188
56.24861
49.6046
44.3324
40.37413
37.69124
36.25052
36.00892
36.90217
38.84162
41.72118
45.42504
49.46396
53.43327
57.00063
59.91634
62.01812
63.22829
63.54392
63.02183
61.76123
59.88651
57.53202
54.83002
51.90214
48.85419
45.77382
42.73021
39.77539
36.94622
34.26688
31.75134
29.40564
27.22994
25.22019
23.36944
21.66889
20.10869
18.67844
17.36767
16.16604
15.06359
14.05081
13.11869
12.25878
11.46316
10.72448
10.03592
9.391222
8.784761
8.211564
7.667403
7.148853
6.653292
6.178846
5.724273
5.288818
4.872085
4.473936
4.094422
3.733732
3.39217
3.070123
2.768037
2.486382
2.22561
1.986097
1.768092
1.571804
1.39755
1.245759
1.116915
1.011549
0.9303045
0.8741392
0.8446188
)
;
    }
    wall
    {
        type            groovyBC;
        refValue        nonuniform List<scalar> 2(60.40096 60.40097);
        refGradient     uniform 0;
        valueFraction   uniform 1;
        value           nonuniform List<scalar> 2(60.40096 60.40097);
        valueExpression "2*nu*internalField(k)/sqr(mag(delta()))";
        gradientExpression "0";
        fractionExpression "1";
        evaluateDuringConstruction 0;
        variables       "";
        timelines       (
);
        lookuptables    (
);
    }
    frontAndBack
    {
        type            empty;
    }
    middle
    {
        type            symmetryPlane;
        value           nonuniform List<scalar> 2(0.8446189 0.8446188);
    }
}


// ************************************************************************* //
