/*--------------------------------*- C++ -*----------------------------------*\
| =========                 |                                                 |
| \\      /  F ield         | foam-extend: Open Source CFD                    |
|  \\    /   O peration     | Version:     4.0                                |
|   \\  /    A nd           | Web:         http://www.foam-extend.org         |
|    \\/     M anipulation  |                                                 |
\*---------------------------------------------------------------------------*/
FoamFile
{
    version     2.0;
    format      ascii;
    class       volScalarField;
    location    "100";
    object      epsilonPlus;
}
// * * * * * * * * * * * * * * * * * * * * * * * * * * * * * * * * * * * * * //

dimensions      [0 4 -4 0 0 0 0];

internalField   nonuniform List<scalar> 
150
(
0.1424015
0.1424016
0.1255813
0.1255813
0.1122339
0.1122339
0.102213
0.102213
0.09542086
0.09542087
0.09177347
0.09177348
0.09116182
0.09116183
0.0934232
0.09342321
0.09833321
0.09833321
0.1056232
0.1056232
0.1150001
0.1150001
0.1252252
0.1252252
0.1352741
0.1352741
0.1443054
0.1443054
0.1516869
0.1516869
0.1570079
0.1570079
0.1600716
0.1600716
0.1608707
0.1608707
0.1595489
0.1595489
0.1563576
0.1563576
0.1516114
0.1516114
0.1456507
0.1456507
0.1388102
0.1388102
0.1313978
0.1313978
0.1236815
0.1236815
0.1158831
0.1158831
0.1081778
0.1081778
0.1006972
0.1006972
0.09353474
0.09353474
0.0867516
0.08675161
0.08038314
0.08038314
0.07444466
0.07444466
0.06893656
0.06893656
0.06384858
0.06384858
0.05916313
0.05916313
0.05485796
0.05485796
0.05090807
0.05090807
0.04728719
0.0472872
0.04396877
0.04396877
0.04092669
0.04092669
0.03813568
0.03813568
0.03557168
0.03557168
0.03321188
0.03321188
0.03103489
0.03103489
0.02902067
0.02902067
0.02715058
0.02715058
0.02540738
0.02540738
0.02377525
0.02377525
0.0222399
0.0222399
0.02078877
0.02078877
0.01941115
0.01941115
0.01809836
0.01809836
0.01684378
0.01684378
0.01564265
0.01564265
0.01449183
0.01449183
0.01338941
0.01338941
0.01233439
0.01233439
0.01132642
0.01132642
0.01036562
0.01036562
0.009452486
0.009452486
0.008587771
0.008587771
0.007772463
0.007772463
0.007007689
0.007007688
0.006294639
0.006294639
0.005634455
0.005634455
0.005028094
0.005028094
0.004476182
0.004476182
0.003979251
0.003979251
0.003538102
0.003538102
0.003153821
0.00315382
0.002827632
0.002827632
0.002560885
0.002560885
0.002355201
0.002355201
0.002213011
0.002213011
0.002138276
0.002138276
)
;

boundaryField
{
    leftandright
    {
        type            cyclic;
        value           nonuniform List<scalar> 
150
(
0.1424015
0.1255813
0.1122339
0.102213
0.09542087
0.09177347
0.09116182
0.09342321
0.09833321
0.1056232
0.1150001
0.1252252
0.1352741
0.1443054
0.1516869
0.1570079
0.1600716
0.1608707
0.1595489
0.1563576
0.1516114
0.1456507
0.1388102
0.1313978
0.1236815
0.1158831
0.1081778
0.1006972
0.09353474
0.0867516
0.08038314
0.07444466
0.06893656
0.06384858
0.05916313
0.05485796
0.05090807
0.0472872
0.04396877
0.04092669
0.03813568
0.03557168
0.03321188
0.03103489
0.02902067
0.02715058
0.02540738
0.02377525
0.0222399
0.02078877
0.01941115
0.01809836
0.01684378
0.01564265
0.01449183
0.01338941
0.01233439
0.01132642
0.01036562
0.009452486
0.008587771
0.007772463
0.007007688
0.006294639
0.005634455
0.005028094
0.004476182
0.003979251
0.003538102
0.003153821
0.002827632
0.002560885
0.002355201
0.002213011
0.002138276
0.1424015
0.1255813
0.1122339
0.102213
0.09542087
0.09177347
0.09116182
0.09342321
0.09833321
0.1056232
0.1150001
0.1252252
0.1352741
0.1443054
0.1516869
0.1570079
0.1600716
0.1608707
0.1595489
0.1563576
0.1516114
0.1456507
0.1388102
0.1313978
0.1236815
0.1158831
0.1081778
0.1006972
0.09353474
0.0867516
0.08038314
0.07444466
0.06893656
0.06384858
0.05916313
0.05485796
0.05090807
0.0472872
0.04396877
0.04092669
0.03813568
0.03557168
0.03321188
0.03103489
0.02902067
0.02715058
0.02540738
0.02377525
0.0222399
0.02078877
0.01941115
0.01809836
0.01684378
0.01564265
0.01449183
0.01338941
0.01233439
0.01132642
0.01036562
0.009452486
0.008587771
0.007772463
0.007007688
0.006294639
0.005634455
0.005028094
0.004476182
0.003979251
0.003538102
0.003153821
0.002827632
0.002560885
0.002355201
0.002213011
0.002138276
)
;
    }
    wall
    {
        type            calculated;
        value           nonuniform List<scalar> 2(0.1529138 0.1529138);
    }
    frontAndBack
    {
        type            empty;
    }
    middle
    {
        type            symmetryPlane;
        value           nonuniform List<scalar> 2(0.002138276 0.002138276);
    }
}


// ************************************************************************* //
