/*--------------------------------*- C++ -*----------------------------------*\
| =========                 |                                                 |
| \\      /  F ield         | foam-extend: Open Source CFD                    |
|  \\    /   O peration     | Version:     4.0                                |
|   \\  /    A nd           | Web:         http://www.foam-extend.org         |
|    \\/     M anipulation  |                                                 |
\*---------------------------------------------------------------------------*/
FoamFile
{
    version     2.0;
    format      ascii;
    class       volScalarField;
    location    "100";
    object      EtauP;
}
// * * * * * * * * * * * * * * * * * * * * * * * * * * * * * * * * * * * * * //

dimensions      [0 2 -4 0 0 0 0];

internalField   nonuniform List<scalar> 
150
(
0.0007913853
0.0007913832
0.02228543
0.02228538
0.1052759
0.1052756
0.3012305
0.3012299
0.6645544
0.6645534
1.245015
1.245014
2.081854
2.081854
3.20205
3.202051
4.623063
4.623066
6.328325
6.328331
8.235481
8.235492
10.27346
10.27347
12.41931
12.41933
14.6334
14.63343
16.87518
16.87521
19.10273
19.10277
21.27262
21.27266
23.33985
23.33989
25.25824
25.25829
26.98179
26.98183
28.46698
28.46702
29.67587
29.67592
30.5793
30.57934
31.15942
31.15946
31.41108
31.41111
31.34177
31.3418
30.97022
30.97025
30.32406
30.32408
29.43702
29.43705
28.34616
28.34619
27.08936
27.08938
25.70343
25.70345
24.22276
24.22278
22.67825
22.67827
21.09689
21.09691
19.50175
19.50177
17.91219
17.9122
16.34416
16.34418
14.81066
14.81068
13.32217
13.32219
11.8871
11.88712
10.51228
10.5123
9.20342
9.203439
7.965609
7.965629
6.803898
6.803917
5.723877
5.723895
4.732246
4.73226
3.837072
3.837086
3.047276
3.047287
2.370831
2.370841
1.811725
1.811733
1.36688
1.366885
1.025113
1.025117
0.7692595
0.7692615
0.5802664
0.5802676
0.4408474
0.4408481
0.3372639
0.3372643
0.2594333
0.2594335
0.2002398
0.2002399
0.1547199
0.1547199
0.1193958
0.1193959
0.09180086
0.09180085
0.07015669
0.07015673
0.05315715
0.05315715
0.03982853
0.03982853
0.02942221
0.02942222
0.02133739
0.0213374
0.01511005
0.01511006
0.01039254
0.01039255
0.006820501
0.006820505
0.004322512
0.004322504
0.002240842
0.002240831
0.001679661
0.00167966
-0.0003158907
-0.000315889
0.0004510089
0.000451008
)
;

boundaryField
{
    leftandright
    {
        type            cyclic;
        value           nonuniform List<scalar> 
150
(
0.0007913843
0.02228541
0.1052758
0.3012302
0.6645539
1.245014
2.081854
3.202051
4.623065
6.328328
8.235487
10.27347
12.41932
14.63341
16.87519
19.10275
21.27264
23.33987
25.25826
26.98181
28.467
29.67589
30.57932
31.15944
31.4111
31.34179
30.97024
30.32407
29.43703
28.34617
27.08937
25.70344
24.22277
22.67826
21.0969
19.50176
17.91219
16.34417
14.81067
13.32218
11.88711
10.51229
9.203429
7.965619
6.803907
5.723886
4.732253
3.837079
3.047282
2.370836
1.811729
1.366883
1.025115
0.7692605
0.580267
0.4408477
0.3372641
0.2594334
0.2002399
0.1547199
0.1193958
0.09180086
0.07015671
0.05315715
0.03982853
0.02942222
0.0213374
0.01511005
0.01039255
0.006820503
0.004322508
0.002240837
0.00167966
-0.0003158898
0.0004510085
0.0007913843
0.02228541
0.1052758
0.3012302
0.6645539
1.245014
2.081854
3.202051
4.623065
6.328328
8.235487
10.27347
12.41932
14.63341
16.87519
19.10275
21.27264
23.33987
25.25826
26.98181
28.467
29.67589
30.57932
31.15944
31.4111
31.34179
30.97024
30.32407
29.43703
28.34617
27.08937
25.70344
24.22277
22.67826
21.0969
19.50176
17.91219
16.34417
14.81067
13.32218
11.88711
10.51229
9.203429
7.965619
6.803907
5.723886
4.732253
3.837079
3.047282
2.370836
1.811729
1.366883
1.025115
0.7692605
0.580267
0.4408477
0.3372641
0.2594334
0.2002399
0.1547199
0.1193958
0.09180086
0.07015671
0.05315715
0.03982853
0.02942222
0.0213374
0.01511005
0.01039255
0.006820503
0.004322508
0.002240837
0.00167966
-0.0003158898
0.0004510085
)
;
    }
    wall
    {
        type            calculated;
        value           nonuniform List<scalar> 2(3.940714e-08 3.940703e-08);
    }
    frontAndBack
    {
        type            empty;
    }
    middle
    {
        type            symmetryPlane;
        value           nonuniform List<scalar> 2(0.0004510089 0.000451008);
    }
}


// ************************************************************************* //
