/*--------------------------------*- C++ -*----------------------------------*\
| =========                 |                                                 |
| \\      /  F ield         | foam-extend: Open Source CFD                    |
|  \\    /   O peration     | Version:     4.0                                |
|   \\  /    A nd           | Web:         http://www.foam-extend.org         |
|    \\/     M anipulation  |                                                 |
\*---------------------------------------------------------------------------*/
FoamFile
{
    version     2.0;
    format      ascii;
    class       volScalarField;
    location    "100";
    object      eVyy;
}
// * * * * * * * * * * * * * * * * * * * * * * * * * * * * * * * * * * * * * //

dimensions      [0 2 -3 0 0 0 0];

internalField   nonuniform List<scalar> 
150
(
4.337497e-10
4.337485e-10
1.021635e-07
1.021633e-07
1.486037e-06
1.486034e-06
8.828577e-06
8.828561e-06
3.274441e-05
3.274437e-05
9.015752e-05
9.015744e-05
0.0002015456
0.0002015456
0.0003864177
0.0003864179
0.0006600443
0.0006600448
0.001028458
0.001028459
0.001708519
0.001708521
0.002613357
0.002613361
0.003778815
0.003778822
0.005248221
0.005248232
0.007075009
0.007075024
0.009321566
0.009321585
0.01205706
0.01205709
0.01535404
0.01535407
0.01928364
0.01928367
0.02390946
0.0239095
0.02928082
0.02928087
0.03542601
0.03542607
0.04234653
0.04234659
0.05001315
0.05001321
0.05836416
0.05836423
0.06730592
0.06730599
0.07671538
0.07671546
0.08644412
0.08644421
0.09632337
0.09632346
0.1061693
0.1061694
0.1157888
0.1157889
0.1249847
0.1249848
0.1335613
0.1335614
0.1413266
0.1413268
0.1480949
0.148095
0.1536898
0.15369
0.1579478
0.1579479
0.1607212
0.1607214
0.1618823
0.1618826
0.161327
0.1613272
0.1589792
0.1589795
0.1547963
0.1547966
0.1487753
0.1487756
0.1409614
0.1409618
0.131461
0.1314614
0.1204581
0.1204585
0.1082364
0.1082367
0.09520078
0.09520114
0.0818834
0.08188371
0.06891004
0.06891033
0.05690863
0.05690888
0.04637441
0.04637459
0.03755669
0.03755681
0.03043686
0.03043694
0.02480504
0.0248051
0.02037432
0.02037435
0.01686789
0.01686791
0.01405848
0.01405849
0.01177379
0.0117738
0.009887626
0.00988763
0.008308411
0.008308414
0.006969562
0.006969562
0.005822346
0.00582235
0.004830781
0.004830781
0.003968602
0.003968602
0.003215977
0.003215977
0.00255627
0.00255627
0.001981187
0.001981189
0.001488589
0.00148859
0.001064156
0.001064156
0.0007311364
0.000731135
0.0004078304
0.0004078283
0.0003252517
0.0003252516
-6.406585e-05
-6.40655e-05
9.383962e-05
9.383944e-05
)
;

boundaryField
{
    leftandright
    {
        type            cyclic;
        value           nonuniform List<scalar> 
150
(
4.337491e-10
1.021634e-07
1.486035e-06
8.828569e-06
3.274439e-05
9.015748e-05
0.0002015456
0.0003864178
0.0006600445
0.001028458
0.00170852
0.002613359
0.003778819
0.005248227
0.007075017
0.009321576
0.01205707
0.01535406
0.01928365
0.02390948
0.02928085
0.03542604
0.04234656
0.05001318
0.05836419
0.06730595
0.07671542
0.08644417
0.09632341
0.1061694
0.1157888
0.1249847
0.1335614
0.1413267
0.148095
0.1536899
0.1579478
0.1607213
0.1618824
0.1613271
0.1589793
0.1547964
0.1487754
0.1409616
0.1314612
0.1204583
0.1082366
0.09520096
0.08188355
0.06891018
0.05690876
0.0463745
0.03755675
0.0304369
0.02480507
0.02037434
0.0168679
0.01405849
0.0117738
0.009887628
0.008308413
0.006969562
0.005822348
0.004830781
0.003968602
0.003215977
0.00255627
0.001981188
0.00148859
0.001064156
0.0007311357
0.0004078294
0.0003252516
-6.406568e-05
9.383953e-05
4.337491e-10
1.021634e-07
1.486035e-06
8.828569e-06
3.274439e-05
9.015748e-05
0.0002015456
0.0003864178
0.0006600445
0.001028458
0.00170852
0.002613359
0.003778819
0.005248227
0.007075017
0.009321576
0.01205707
0.01535406
0.01928365
0.02390948
0.02928085
0.03542604
0.04234656
0.05001318
0.05836419
0.06730595
0.07671542
0.08644417
0.09632341
0.1061694
0.1157888
0.1249847
0.1335614
0.1413267
0.148095
0.1536899
0.1579478
0.1607213
0.1618824
0.1613271
0.1589793
0.1547964
0.1487754
0.1409616
0.1314612
0.1204583
0.1082366
0.09520096
0.08188355
0.06891018
0.05690876
0.0463745
0.03755675
0.0304369
0.02480507
0.02037434
0.0168679
0.01405849
0.0117738
0.009887628
0.008308413
0.006969562
0.005822348
0.004830781
0.003968602
0.003215977
0.00255627
0.001981188
0.00148859
0.001064156
0.0007311357
0.0004078294
0.0003252516
-6.406568e-05
9.383953e-05
)
;
    }
    wall
    {
        type            calculated;
        value           nonuniform List<scalar> 2(6.801027e-10 6.801008e-10);
    }
    frontAndBack
    {
        type            empty;
    }
    middle
    {
        type            symmetryPlane;
        value           nonuniform List<scalar> 2(9.383962e-05 9.383944e-05);
    }
}


// ************************************************************************* //
