/*--------------------------------*- C++ -*----------------------------------*\
| =========                 |                                                 |
| \\      /  F ield         | foam-extend: Open Source CFD                    |
|  \\    /   O peration     | Version:     4.0                                |
|   \\  /    A nd           | Web:         http://www.foam-extend.org         |
|    \\/     M anipulation  |                                                 |
\*---------------------------------------------------------------------------*/
FoamFile
{
    version     2.0;
    format      ascii;
    class       volScalarField;
    location    "100";
    object      f;
}
// * * * * * * * * * * * * * * * * * * * * * * * * * * * * * * * * * * * * * //

dimensions      [0 0 -1 0 0 0 0];

internalField   nonuniform List<scalar> 
150
(
0.04572788
0.04572788
0.1371354
0.1371354
0.2308942
0.2308942
0.327138
0.327138
0.4259487
0.4259487
0.5273397
0.5273397
0.6312363
0.6312363
0.7374484
0.7374484
0.8456405
0.8456405
0.9552946
0.9552946
1.065672
1.065672
1.17654
1.17654
1.287527
1.287527
1.398167
1.398167
1.507941
1.507941
1.616303
1.616303
1.722706
1.722706
1.826617
1.826617
1.927537
1.927537
2.025005
2.025005
2.118609
2.118609
2.207984
2.207984
2.292815
2.292815
2.372834
2.372834
2.447817
2.447817
2.517576
2.517576
2.58196
2.58196
2.640845
2.640846
2.694133
2.694133
2.741742
2.741742
2.783609
2.783609
2.819754
2.819754
2.85055
2.85055
2.876338
2.876338
2.897431
2.897431
2.914112
2.914112
2.926643
2.926643
2.93526
2.93526
2.940183
2.940183
2.941608
2.941608
2.939718
2.939718
2.934678
2.934678
2.926638
2.926638
2.915734
2.915734
2.902092
2.902092
2.885823
2.885823
2.867031
2.867031
2.84581
2.84581
2.822246
2.822246
2.796422
2.796422
2.768417
2.768417
2.738308
2.738308
2.706175
2.706175
2.672102
2.672102
2.636175
2.636175
2.598488
2.598488
2.55914
2.55914
2.51824
2.51824
2.475905
2.475905
2.432268
2.432268
2.387478
2.387478
2.341705
2.341705
2.295151
2.295151
2.248057
2.248057
2.200717
2.200717
2.1535
2.1535
2.106873
2.106873
2.061435
2.061435
2.017928
2.017928
1.977221
1.977221
1.940301
1.940301
1.908249
1.908249
1.882231
1.882231
1.863497
1.863497
1.853393
1.853393
)
;

boundaryField
{
    leftandright
    {
        type            cyclic;
        value           nonuniform List<scalar> 
150
(
0.04572788
0.1371354
0.2308942
0.327138
0.4259487
0.5273397
0.6312363
0.7374484
0.8456405
0.9552946
1.065672
1.17654
1.287527
1.398167
1.507941
1.616303
1.722706
1.826617
1.927537
2.025005
2.118609
2.207984
2.292815
2.372834
2.447817
2.517576
2.58196
2.640845
2.694133
2.741742
2.783609
2.819754
2.85055
2.876338
2.897431
2.914112
2.926643
2.93526
2.940183
2.941608
2.939718
2.934678
2.926638
2.915734
2.902092
2.885823
2.867031
2.84581
2.822246
2.796422
2.768417
2.738308
2.706175
2.672102
2.636175
2.598488
2.55914
2.51824
2.475905
2.432268
2.387478
2.341705
2.295151
2.248057
2.200717
2.1535
2.106873
2.061435
2.017928
1.977221
1.940301
1.908249
1.882231
1.863497
1.853393
0.04572788
0.1371354
0.2308942
0.327138
0.4259487
0.5273397
0.6312363
0.7374484
0.8456405
0.9552946
1.065672
1.17654
1.287527
1.398167
1.507941
1.616303
1.722706
1.826617
1.927537
2.025005
2.118609
2.207984
2.292815
2.372834
2.447817
2.517576
2.58196
2.640845
2.694133
2.741742
2.783609
2.819754
2.85055
2.876338
2.897431
2.914112
2.926643
2.93526
2.940183
2.941608
2.939718
2.934678
2.926638
2.915734
2.902092
2.885823
2.867031
2.84581
2.822246
2.796422
2.768417
2.738308
2.706175
2.672102
2.636175
2.598488
2.55914
2.51824
2.475905
2.432268
2.387478
2.341705
2.295151
2.248057
2.200717
2.1535
2.106873
2.061435
2.017928
1.977221
1.940301
1.908249
1.882231
1.863497
1.853393
)
;
    }
    wall
    {
        type            fixedValue;
        value           uniform 1e-10;
    }
    frontAndBack
    {
        type            empty;
    }
    middle
    {
        type            symmetryPlane;
        value           nonuniform List<scalar> 2(1.853393 1.853393);
    }
}


// ************************************************************************* //
