/*--------------------------------*- C++ -*----------------------------------*\
| =========                 |                                                 |
| \\      /  F ield         | foam-extend: Open Source CFD                    |
|  \\    /   O peration     | Version:     4.0                                |
|   \\  /    A nd           | Web:         http://www.foam-extend.org         |
|    \\/     M anipulation  |                                                 |
\*---------------------------------------------------------------------------*/
FoamFile
{
    version     2.0;
    format      ascii;
    class       volScalarField;
    location    "100";
    object      fp;
}
// * * * * * * * * * * * * * * * * * * * * * * * * * * * * * * * * * * * * * //

dimensions      [0 0 0 0 0 0 0];

internalField   nonuniform List<scalar> 
150
(
1.590905
1.590905
1.59034
1.59034
1.589221
1.589221
1.587435
1.587436
1.584804
1.584804
1.581176
1.581177
1.576511
1.576511
1.570874
1.570874
1.564251
1.564251
1.556027
1.556028
1.54559
1.545591
1.533349
1.53335
1.520393
1.520393
1.507391
1.507392
1.494685
1.494686
1.482394
1.482394
1.47049
1.47049
1.458856
1.458856
1.447324
1.447324
1.435701
1.435702
1.423803
1.423804
1.411471
1.411472
1.398594
1.398594
1.385115
1.385115
1.371035
1.371035
1.356404
1.356404
1.341309
1.341309
1.325861
1.325862
1.310184
1.310184
1.294397
1.294397
1.278609
1.27861
1.262918
1.262918
1.247398
1.247398
1.23211
1.23211
1.217094
1.217094
1.202378
1.202378
1.187975
1.187976
1.173893
1.173893
1.160129
1.160129
1.146679
1.146679
1.133539
1.133539
1.120708
1.120709
1.108192
1.108192
1.096006
1.096006
1.084186
1.084186
1.072792
1.072792
1.061918
1.061919
1.051701
1.051701
1.042312
1.042312
1.033942
1.033942
1.026751
1.026751
1.020819
1.020819
1.016107
1.016107
1.012472
1.012472
1.009712
1.009712
1.007624
1.007624
1.006033
1.006033
1.004806
1.004806
1.003848
1.003848
1.003089
1.003089
1.002481
1.002481
1.001989
1.001989
1.001588
1.001588
1.00126
1.00126
1.000991
1.000991
1.00077
1.00077
1.000589
1.000589
1.00044
1.00044
1.00032
1.00032
1.000222
1.000222
1.000149
1.000149
1.000081
1.000081
1.000063
1.000063
1
1
1.000018
1.000018
)
;

boundaryField
{
    leftandright
    {
        type            cyclic;
        value           nonuniform List<scalar> 
150
(
1.590905
1.59034
1.589221
1.587435
1.584804
1.581177
1.576511
1.570874
1.564251
1.556027
1.545591
1.533349
1.520393
1.507391
1.494686
1.482394
1.47049
1.458856
1.447324
1.435702
1.423803
1.411471
1.398594
1.385115
1.371035
1.356404
1.341309
1.325861
1.310184
1.294397
1.27861
1.262918
1.247398
1.23211
1.217094
1.202378
1.187976
1.173893
1.160129
1.146679
1.133539
1.120709
1.108192
1.096006
1.084186
1.072792
1.061918
1.051701
1.042312
1.033942
1.026751
1.020819
1.016107
1.012472
1.009712
1.007624
1.006033
1.004806
1.003848
1.003089
1.002481
1.001989
1.001588
1.00126
1.000991
1.00077
1.000589
1.00044
1.00032
1.000222
1.000149
1.000081
1.000063
1
1.000018
1.590905
1.59034
1.589221
1.587435
1.584804
1.581177
1.576511
1.570874
1.564251
1.556027
1.545591
1.533349
1.520393
1.507391
1.494686
1.482394
1.47049
1.458856
1.447324
1.435702
1.423803
1.411471
1.398594
1.385115
1.371035
1.356404
1.341309
1.325861
1.310184
1.294397
1.27861
1.262918
1.247398
1.23211
1.217094
1.202378
1.187976
1.173893
1.160129
1.146679
1.133539
1.120709
1.108192
1.096006
1.084186
1.072792
1.061918
1.051701
1.042312
1.033942
1.026751
1.020819
1.016107
1.012472
1.009712
1.007624
1.006033
1.004806
1.003848
1.003089
1.002481
1.001989
1.001588
1.00126
1.000991
1.00077
1.000589
1.00044
1.00032
1.000222
1.000149
1.000081
1.000063
1
1.000018
)
;
    }
    wall
    {
        type            calculated;
        value           nonuniform List<scalar> 2(1.590905 1.590905);
    }
    frontAndBack
    {
        type            empty;
    }
    middle
    {
        type            symmetryPlane;
        value           nonuniform List<scalar> 2(1.000018 1.000018);
    }
}


// ************************************************************************* //
