/*--------------------------------*- C++ -*----------------------------------*\
| =========                 |                                                 |
| \\      /  F ield         | foam-extend: Open Source CFD                    |
|  \\    /   O peration     | Version:     4.0                                |
|   \\  /    A nd           | Web:         http://www.foam-extend.org         |
|    \\/     M anipulation  |                                                 |
\*---------------------------------------------------------------------------*/
FoamFile
{
    version     2.0;
    format      ascii;
    class       volScalarField;
    location    "100";
    object      k;
}
// * * * * * * * * * * * * * * * * * * * * * * * * * * * * * * * * * * * * * //

dimensions      [0 2 -2 0 0 0 0];

internalField   nonuniform List<scalar> 
150
(
0.005138808
0.005138809
0.05493739
0.0549374
0.1454499
0.1454499
0.2778434
0.2778434
0.4531877
0.4531878
0.6719673
0.6719673
0.9335769
0.933577
1.236029
1.236029
1.576038
1.576038
1.94947
1.94947
2.349039
2.349039
2.75897
2.75897
3.165336
3.165336
3.555088
3.555088
3.917017
3.917017
4.242375
4.242375
4.525151
4.525151
4.762054
4.762054
4.95226
4.95226
5.097011
5.097011
5.199135
5.199135
5.262558
5.262558
5.291856
5.291856
5.29187
5.29187
5.267406
5.267406
5.223014
5.223015
5.162845
5.162846
5.090571
5.090571
5.009354
5.009355
4.921855
4.921855
4.830263
4.830263
4.736339
4.736339
4.641472
4.641472
4.546727
4.546727
4.452897
4.452897
4.360547
4.360547
4.270048
4.270048
4.181617
4.181617
4.095337
4.095337
4.011179
4.011179
3.929022
3.929022
3.848666
3.848666
3.769839
3.769839
3.69221
3.69221
3.615391
3.615391
3.53895
3.53895
3.462417
3.462417
3.385297
3.385297
3.307091
3.307091
3.227322
3.227322
3.145563
3.145563
3.061475
3.061475
2.974826
2.974826
2.885506
2.885506
2.793523
2.793523
2.698993
2.698993
2.602126
2.602126
2.503214
2.503214
2.402628
2.402628
2.300816
2.300816
2.198308
2.198308
2.095714
2.095714
1.993729
1.993729
1.893125
1.893125
1.794746
1.794746
1.699483
1.699483
1.608249
1.608249
1.522008
1.522008
1.441841
1.441841
1.368945
1.368945
1.304597
1.304597
1.250121
1.250121
1.206876
1.206876
1.176301
1.176301
1.15999
1.15999
)
;

boundaryField
{
    leftandright
    {
        type            cyclic;
        value           nonuniform List<scalar> 
150
(
0.005138809
0.0549374
0.1454499
0.2778434
0.4531878
0.6719673
0.9335769
1.236029
1.576038
1.94947
2.349039
2.75897
3.165336
3.555088
3.917017
4.242375
4.525151
4.762054
4.95226
5.097011
5.199135
5.262558
5.291856
5.29187
5.267406
5.223014
5.162846
5.090571
5.009354
4.921855
4.830263
4.736339
4.641472
4.546727
4.452897
4.360547
4.270048
4.181617
4.095337
4.011179
3.929022
3.848666
3.769839
3.69221
3.615391
3.53895
3.462417
3.385297
3.307091
3.227322
3.145563
3.061475
2.974826
2.885506
2.793523
2.698993
2.602126
2.503214
2.402628
2.300816
2.198308
2.095714
1.993729
1.893125
1.794746
1.699483
1.608249
1.522008
1.441841
1.368945
1.304597
1.250121
1.206876
1.176301
1.15999
0.005138809
0.0549374
0.1454499
0.2778434
0.4531878
0.6719673
0.9335769
1.236029
1.576038
1.94947
2.349039
2.75897
3.165336
3.555088
3.917017
4.242375
4.525151
4.762054
4.95226
5.097011
5.199135
5.262558
5.291856
5.29187
5.267406
5.223014
5.162846
5.090571
5.009354
4.921855
4.830263
4.736339
4.641472
4.546727
4.452897
4.360547
4.270048
4.181617
4.095337
4.011179
3.929022
3.848666
3.769839
3.69221
3.615391
3.53895
3.462417
3.385297
3.307091
3.227322
3.145563
3.061475
2.974826
2.885506
2.793523
2.698993
2.602126
2.503214
2.402628
2.300816
2.198308
2.095714
1.993729
1.893125
1.794746
1.699483
1.608249
1.522008
1.441841
1.368945
1.304597
1.250121
1.206876
1.176301
1.15999
)
;
    }
    wall
    {
        type            fixedValue;
        value           uniform 1e-10;
    }
    frontAndBack
    {
        type            empty;
    }
    middle
    {
        type            symmetryPlane;
        value           nonuniform List<scalar> 2(1.15999 1.15999);
    }
}


// ************************************************************************* //
