/*--------------------------------*- C++ -*----------------------------------*\
| =========                 |                                                 |
| \\      /  F ield         | foam-extend: Open Source CFD                    |
|  \\    /   O peration     | Version:     4.0                                |
|   \\  /    A nd           | Web:         http://www.foam-extend.org         |
|    \\/     M anipulation  |                                                 |
\*---------------------------------------------------------------------------*/
FoamFile
{
    version     2.0;
    format      ascii;
    class       volSymmTensorField;
    location    "100";
    object      N;
}
// * * * * * * * * * * * * * * * * * * * * * * * * * * * * * * * * * * * * * //

dimensions      [0 2 -2 0 0 0 0];

internalField   nonuniform List<symmTensor> 
150
(
(0.01008005 0 0 7.226101e-07 0 0.0001968439)
(0.01008005 0 0 7.226103e-07 0 0.0001968439)
(0.1077346 0 0 3.516434e-05 0 0.002105035)
(0.1077346 0 0 3.516435e-05 0 0.002105035)
(0.2840359 0 0 0.0002123834 0 0.006651461)
(0.2840359 0 0 0.0002123834 0 0.006651462)
(0.5384147 0 0 0.0007000865 0 0.01657192)
(0.5384148 0 0 0.0007000866 0 0.01657192)
(0.8719381 0 0 0.001697255 0 0.03274012)
(0.8719382 0 0 0.001697255 0 0.03274013)
(1.284344 0 0 0.003410525 0 0.05618044)
(1.284344 0 0 0.003410526 0 0.05618045)
(1.773502 2.057259e-18 0 0.006035018 0 0.08761671)
(1.773502 -2.05726e-18 0 0.006035019 0 0.08761672)
(2.334854 0 0 0.009741521 0 0.1274625)
(2.334854 0 0 0.009741523 0 0.1274626)
(2.961558 0 0 0.01467146 0 0.1758471)
(2.961558 -7.357443e-18 0 0.01467146 0 0.1758471)
(3.645319 0 0 0.02093938 0 0.2326818)
(3.64532 0 0 0.02093939 0 0.2326818)
(4.372249 0 0 0.02857834 0 0.297251)
(4.372249 0 0 0.02857835 0 0.297251)
(5.112446 -2.597356e-17 0 0.03755405 0 0.3679406)
(5.112446 2.597356e-17 0 0.03755406 0 0.3679407)
(5.839625 0 0 0.04783574 0 0.4432105)
(5.839626 0 0 0.04783575 0 0.4432105)
(6.529424 3.287551e-17 0 0.05936452 0 0.5213862)
(6.529425 -3.287551e-17 0 0.05936453 0 0.5213863)
(7.161208 0 0 0.07205628 0 0.6007699)
(7.161208 0 0 0.07205629 0 0.60077)
(7.719202 -3.825169e-17 0 0.08580632 0 0.679742)
(7.719202 0 0 0.08580634 0 0.6797421)
(8.192961 0 0 0.1004952 0 0.7568457)
(8.192961 0 0 0.1004952 0 0.7568458)
(8.577265 8.334096e-17 0 0.1159952 0 0.8308474)
(8.577265 0 0 0.1159953 0 0.8308474)
(8.871573 0 0 0.1321763 0 0.9007703)
(8.871574 0 0 0.1321763 0 0.9007704)
(9.079206 -1.724218e-16 0 0.148911 0 0.9659047)
(9.079207 8.621089e-17 0 0.148911 0 0.9659048)
(9.206395 0 0 0.1660785 0 1.025796)
(9.206395 0 0 0.1660785 0 1.025796)
(9.26133 1.712767e-16 0 0.183567 0 1.080219)
(9.26133 0 0 0.183567 0 1.080219)
(9.253296 1.686204e-16 0 0.2012747 0 1.129141)
(9.253296 0 0 0.2012747 0 1.129141)
(9.191945 0 0 0.2191105 0 1.172684)
(9.191945 0 0 0.2191106 0 1.172684)
(9.086733 -1.602235e-16 0 0.2369933 0 1.211085)
(9.086734 0 0 0.2369933 0 1.211086)
(8.946518 -1.548916e-16 0 0.2548509 0 1.24466)
(8.946518 0 0 0.2548509 0 1.24466)
(8.779303 -2.980957e-16 0 0.2726196 0 1.273768)
(8.779303 0 0 0.2726196 0 1.273768)
(8.592105 0 0 0.2902426 0 1.298795)
(8.592105 0 0 0.2902426 0 1.298795)
(8.390913 0 0 0.3076695 0 1.320126)
(8.390913 0 0 0.3076696 0 1.320126)
(8.180719 0 0 0.3248557 0 1.338136)
(8.180719 0 0 0.3248558 0 1.338136)
(7.965586 2.467111e-16 0 0.3417621 0 1.353177)
(7.965586 -2.467111e-16 0 0.3417621 0 1.353177)
(7.748744 2.337414e-16 0 0.3583553 0 1.365578)
(7.748744 0 0 0.3583553 0 1.365579)
(7.532697 -6.630243e-16 0 0.3746077 0 1.375639)
(7.532697 0 0 0.3746077 0 1.375639)
(7.319335 0 0 0.3904943 0 1.383625)
(7.319335 0 0 0.3904943 0 1.383625)
(7.11004 3.931754e-16 0 0.405991 0 1.389764)
(7.11004 0 0 0.405991 0 1.389764)
(6.90577 0 0 0.4210728 0 1.39425)
(6.905771 0 0 0.4210728 0 1.39425)
(6.707142 6.9564e-16 0 0.4357133 0 1.397242)
(6.707142 -3.4782e-16 0 0.4357133 0 1.397242)
(6.514486 0 0 0.449884 0 1.398864)
(6.514486 0 0 0.449884 0 1.398864)
(6.327906 0 0 0.4635538 0 1.399214)
(6.327906 0 0 0.4635538 0 1.399214)
(6.147313 0 0 0.476689 0 1.398356)
(6.147313 0 0 0.476689 0 1.398356)
(5.972462 0 0 0.4892528 0 1.396329)
(5.972462 0 0 0.4892528 0 1.396329)
(5.802978 0 0 0.5012055 0 1.393148)
(5.802978 0 0 0.5012055 0 1.393148)
(5.638373 0 0 0.5125045 0 1.388801)
(5.638373 0 0 0.5125045 0 1.388801)
(5.478061 -8.779721e-16 0 0.5231042 0 1.383255)
(5.478061 0 0 0.5231042 0 1.383255)
(5.321375 -4.095526e-16 0 0.532956 0 1.376451)
(5.321375 0 0 0.5329559 0 1.376451)
(5.167576 0 0 0.5420088 0 1.368315)
(5.167576 0 0 0.5420088 0 1.368315)
(5.015873 0 0 0.5502097 0 1.358751)
(5.015873 0 0 0.5502097 0 1.358751)
(4.865442 0 0 0.557504 0 1.347648)
(4.865442 0 0 0.557504 0 1.347648)
(4.715456 6.133984e-16 0 0.5638371 0 1.334889)
(4.715456 0 0 0.5638371 0 1.334889)
(4.565132 5.685441e-16 0 0.5691562 0 1.320354)
(4.565132 -5.685441e-16 0 0.5691562 0 1.320354)
(4.413778 0 0 0.5734126 0 1.303935)
(4.413778 0 0 0.5734126 0 1.303935)
(4.260842 0 0 0.5765644 0 1.285543)
(4.260842 0 0 0.5765644 0 1.285543)
(4.10595 0 0 0.5785798 0 1.265122)
(4.10595 0 0 0.5785798 0 1.265122)
(3.948921 0 0 0.5794387 0 1.242652)
(3.948921 0 0 0.5794387 0 1.242652)
(3.789762 0 0 0.579134 0 1.21815)
(3.789762 0 0 0.579134 0 1.21815)
(3.628642 -6.891469e-16 0 0.5776718 0 1.191673)
(3.628642 6.891469e-16 0 0.5776718 0 1.191673)
(3.465873 0 0 0.5750706 0 1.163308)
(3.465873 0 0 0.5750706 0 1.163308)
(3.301892 0 0 0.5713602 0 1.133176)
(3.301892 0 0 0.5713602 0 1.133176)
(3.137253 -5.169174e-16 0 0.5665797 0 1.101423)
(3.137253 5.169174e-16 0 0.5665797 0 1.101423)
(2.972633 0 0 0.5607747 0 1.068225)
(2.972633 0 0 0.5607747 0 1.068225)
(2.808841 0 0 0.5539931 0 1.033782)
(2.808841 0 0 0.5539931 0 1.033782)
(2.646829 0 0 0.5462782 0 0.9983207)
(2.646829 0 0 0.5462781 0 0.9983207)
(2.48771 -1.344191e-15 0 0.5376592 0 0.9620876)
(2.48771 0 0 0.5376592 0 0.9620876)
(2.332769 0 0 0.5281378 0 0.9253441)
(2.332769 -5.984023e-16 0 0.5281378 0 0.9253441)
(2.183469 0 0 0.5176686 0 0.8883553)
(2.183469 0 0 0.5176686 0 0.8883553)
(2.041461 0 0 0.5061326 0 0.8513724)
(2.041461 0 0 0.5061326 0 0.8513724)
(1.908589 0 0 0.4933008 0 0.8146069)
(1.908589 -8.336385e-16 0 0.4933008 0 0.8146069)
(1.785908 0 0 0.479476 0 0.7786322)
(1.785908 0 0 0.479476 0 0.7786322)
(1.674112 0 0 0.4653103 0 0.7442601)
(1.674112 0 0 0.4653103 0 0.7442601)
(1.574133 0 0 0.4514424 0 0.7123151)
(1.574133 0 0 0.4514424 0 0.7123151)
(1.487076 0 0 0.4384926 0 0.6836247)
(1.487076 0 0 0.4384926 0 0.6836247)
(1.414181 0 0 0.427054 0 0.6590073)
(1.414181 0 0 0.427054 0 0.6590073)
(1.3568 0 0 0.4176851 0 0.6392656)
(1.3568 0 0 0.4176851 0 0.6392656)
(1.316479 0 0 0.4109157 0 0.6252077)
(1.316479 0 0 0.4109157 0 0.6252076)
(1.29505 -7.327862e-16 0 0.4072558 0 0.6176745)
(1.29505 0 0 0.4072558 0 0.6176744)
)
;

boundaryField
{
    leftandright
    {
        type            cyclic;
        value           nonuniform List<symmTensor> 
150
(
(0.01008005 0 0 7.226102e-07 0 0.0001968439)
(0.1077346 0 0 3.516434e-05 0 0.002105035)
(0.2840359 0 0 0.0002123834 0 0.006651462)
(0.5384148 0 0 0.0007000865 0 0.01657192)
(0.8719381 0 0 0.001697255 0 0.03274013)
(1.284344 0 0 0.003410526 0 0.05618045)
(1.773502 -1.131269e-33 0 0.006035019 0 0.08761671)
(2.334854 0 0 0.009741522 0 0.1274626)
(2.961558 -3.678721e-18 0 0.01467146 0 0.1758471)
(3.64532 0 0 0.02093938 0 0.2326818)
(4.372249 0 0 0.02857834 0 0.297251)
(5.112446 -2.036165e-33 0 0.03755405 0 0.3679406)
(5.839625 0 0 0.04783574 0 0.4432105)
(6.529425 8.542286e-33 0 0.05936452 0 0.5213863)
(7.161208 0 0 0.07205629 0 0.6007699)
(7.719202 -1.912585e-17 0 0.08580633 0 0.679742)
(8.192961 0 0 0.1004952 0 0.7568458)
(8.577265 4.167048e-17 0 0.1159953 0 0.8308474)
(8.871573 0 0 0.1321763 0 0.9007704)
(9.079206 -4.310544e-17 0 0.148911 0 0.9659048)
(9.206395 0 0 0.1660785 0 1.025796)
(9.26133 8.563833e-17 0 0.183567 0 1.080219)
(9.253296 8.431022e-17 0 0.2012747 0 1.129141)
(9.191945 0 0 0.2191106 0 1.172684)
(9.086734 -8.011173e-17 0 0.2369933 0 1.211085)
(8.946518 -7.74458e-17 0 0.2548509 0 1.24466)
(8.779303 -1.490479e-16 0 0.2726196 0 1.273768)
(8.592105 0 0 0.2902426 0 1.298795)
(8.390913 0 0 0.3076695 0 1.320126)
(8.180719 0 0 0.3248558 0 1.338136)
(7.965586 0 0 0.3417621 0 1.353177)
(7.748744 1.168707e-16 0 0.3583553 0 1.365579)
(7.532697 -3.315121e-16 0 0.3746077 0 1.375639)
(7.319335 0 0 0.3904943 0 1.383625)
(7.11004 1.965877e-16 0 0.405991 0 1.389764)
(6.905771 0 0 0.4210728 0 1.39425)
(6.707142 1.7391e-16 0 0.4357133 0 1.397242)
(6.514486 0 0 0.449884 0 1.398864)
(6.327906 0 0 0.4635538 0 1.399214)
(6.147313 0 0 0.476689 0 1.398356)
(5.972462 0 0 0.4892528 0 1.396329)
(5.802978 0 0 0.5012055 0 1.393148)
(5.638373 0 0 0.5125045 0 1.388801)
(5.478061 -4.38986e-16 0 0.5231042 0 1.383255)
(5.321375 -2.047763e-16 0 0.532956 0 1.376451)
(5.167576 0 0 0.5420088 0 1.368315)
(5.015873 0 0 0.5502097 0 1.358751)
(4.865442 0 0 0.557504 0 1.347648)
(4.715456 3.066992e-16 0 0.5638371 0 1.334889)
(4.565132 6.296279e-31 0 0.5691562 0 1.320354)
(4.413778 0 0 0.5734126 0 1.303935)
(4.260842 0 0 0.5765644 0 1.285543)
(4.10595 0 0 0.5785798 0 1.265122)
(3.948921 0 0 0.5794387 0 1.242652)
(3.789762 0 0 0.579134 0 1.21815)
(3.628642 -6.054516e-32 0 0.5776718 0 1.191673)
(3.465873 0 0 0.5750706 0 1.163308)
(3.301892 0 0 0.5713602 0 1.133176)
(3.137253 -1.054793e-31 0 0.5665797 0 1.101423)
(2.972633 0 0 0.5607747 0 1.068225)
(2.808841 0 0 0.5539931 0 1.033782)
(2.646829 0 0 0.5462782 0 0.9983207)
(2.48771 -6.720955e-16 0 0.5376592 0 0.9620876)
(2.332769 -2.992011e-16 0 0.5281378 0 0.9253441)
(2.183469 0 0 0.5176686 0 0.8883553)
(2.041461 0 0 0.5061326 0 0.8513724)
(1.908589 -4.168193e-16 0 0.4933008 0 0.8146069)
(1.785908 0 0 0.479476 0 0.7786322)
(1.674112 0 0 0.4653103 0 0.7442601)
(1.574133 0 0 0.4514424 0 0.7123151)
(1.487076 0 0 0.4384926 0 0.6836247)
(1.414181 0 0 0.427054 0 0.6590073)
(1.3568 0 0 0.4176851 0 0.6392656)
(1.316479 0 0 0.4109157 0 0.6252076)
(1.29505 -3.663931e-16 0 0.4072558 0 0.6176745)
(0.01008005 0 0 7.226102e-07 0 0.0001968439)
(0.1077346 0 0 3.516434e-05 0 0.002105035)
(0.2840359 0 0 0.0002123834 0 0.006651462)
(0.5384148 0 0 0.0007000865 0 0.01657192)
(0.8719381 0 0 0.001697255 0 0.03274013)
(1.284344 0 0 0.003410526 0 0.05618045)
(1.773502 -1.256965e-33 0 0.006035019 0 0.08761671)
(2.334854 0 0 0.009741522 0 0.1274626)
(2.961558 -3.678721e-18 0 0.01467146 0 0.1758471)
(3.64532 0 0 0.02093938 0 0.2326818)
(4.372249 0 0 0.02857834 0 0.297251)
(5.112446 -2.036165e-33 0 0.03755405 0 0.3679406)
(5.839625 0 0 0.04783574 0 0.4432105)
(6.529425 8.542286e-33 0 0.05936452 0 0.5213863)
(7.161208 0 0 0.07205629 0 0.6007699)
(7.719202 -1.912585e-17 0 0.08580633 0 0.679742)
(8.192961 0 0 0.1004952 0 0.7568458)
(8.577265 4.167048e-17 0 0.1159953 0 0.8308474)
(8.871573 0 0 0.1321763 0 0.9007704)
(9.079206 -4.310544e-17 0 0.148911 0 0.9659048)
(9.206395 0 0 0.1660785 0 1.025796)
(9.26133 8.563833e-17 0 0.183567 0 1.080219)
(9.253296 8.431022e-17 0 0.2012747 0 1.129141)
(9.191945 0 0 0.2191106 0 1.172684)
(9.086734 -8.011173e-17 0 0.2369933 0 1.211085)
(8.946518 -7.74458e-17 0 0.2548509 0 1.24466)
(8.779303 -1.490479e-16 0 0.2726196 0 1.273768)
(8.592105 0 0 0.2902426 0 1.298795)
(8.390913 0 0 0.3076695 0 1.320126)
(8.180719 0 0 0.3248558 0 1.338136)
(7.965586 0 0 0.3417621 0 1.353177)
(7.748744 1.168707e-16 0 0.3583553 0 1.365579)
(7.532697 -3.315121e-16 0 0.3746077 0 1.375639)
(7.319335 0 0 0.3904943 0 1.383625)
(7.11004 1.965877e-16 0 0.405991 0 1.389764)
(6.905771 0 0 0.4210728 0 1.39425)
(6.707142 1.7391e-16 0 0.4357133 0 1.397242)
(6.514486 0 0 0.449884 0 1.398864)
(6.327906 0 0 0.4635538 0 1.399214)
(6.147313 0 0 0.476689 0 1.398356)
(5.972462 0 0 0.4892528 0 1.396329)
(5.802978 0 0 0.5012055 0 1.393148)
(5.638373 0 0 0.5125045 0 1.388801)
(5.478061 -4.38986e-16 0 0.5231042 0 1.383255)
(5.321375 -2.047763e-16 0 0.532956 0 1.376451)
(5.167576 0 0 0.5420088 0 1.368315)
(5.015873 0 0 0.5502097 0 1.358751)
(4.865442 0 0 0.557504 0 1.347648)
(4.715456 3.066992e-16 0 0.5638371 0 1.334889)
(4.565132 6.296279e-31 0 0.5691562 0 1.320354)
(4.413778 0 0 0.5734126 0 1.303935)
(4.260842 0 0 0.5765644 0 1.285543)
(4.10595 0 0 0.5785798 0 1.265122)
(3.948921 0 0 0.5794387 0 1.242652)
(3.789762 0 0 0.579134 0 1.21815)
(3.628642 -6.054516e-32 0 0.5776718 0 1.191673)
(3.465873 0 0 0.5750706 0 1.163308)
(3.301892 0 0 0.5713602 0 1.133176)
(3.137253 -1.054793e-31 0 0.5665797 0 1.101423)
(2.972633 0 0 0.5607747 0 1.068225)
(2.808841 0 0 0.5539931 0 1.033782)
(2.646829 0 0 0.5462782 0 0.9983207)
(2.48771 -6.720955e-16 0 0.5376592 0 0.9620876)
(2.332769 -2.992011e-16 0 0.5281378 0 0.9253441)
(2.183469 0 0 0.5176686 0 0.8883553)
(2.041461 0 0 0.5061326 0 0.8513724)
(1.908589 -4.168193e-16 0 0.4933008 0 0.8146069)
(1.785908 0 0 0.479476 0 0.7786322)
(1.674112 0 0 0.4653103 0 0.7442601)
(1.574133 0 0 0.4514424 0 0.7123151)
(1.487076 0 0 0.4384926 0 0.6836247)
(1.414181 0 0 0.427054 0 0.6590073)
(1.3568 0 0 0.4176851 0 0.6392656)
(1.316479 0 0 0.4109157 0 0.6252076)
(1.29505 -3.663931e-16 0 0.4072558 0 0.6176745)
)
;
    }
    wall
    {
        type            calculated;
        value           uniform (3.333333e-11 0 0 1e-10 0 6.666667e-11);
    }
    frontAndBack
    {
        type            empty;
    }
    middle
    {
        type            symmetryPlane;
        value           nonuniform List<symmTensor> 2((1.29505 0 0 0.6176745 0 0.6176745) (1.29505 0 0 0.6176744 0 0.6176744));
    }
}


// ************************************************************************* //
