/*--------------------------------*- C++ -*----------------------------------*\
| =========                 |                                                 |
| \\      /  F ield         | foam-extend: Open Source CFD                    |
|  \\    /   O peration     | Version:     4.0                                |
|   \\  /    A nd           | Web:         http://www.foam-extend.org         |
|    \\/     M anipulation  |                                                 |
\*---------------------------------------------------------------------------*/
FoamFile
{
    version     2.0;
    format      ascii;
    class       volSymmTensorField;
    location    "100";
    object      NLT;
}
// * * * * * * * * * * * * * * * * * * * * * * * * * * * * * * * * * * * * * //

dimensions      [0 0 -1 0 0 0 0];

internalField   nonuniform List<symmTensor> 
150
(
(0.002982578 0 0 2.726131e-07 0 0)
(0.00298257 0 0 2.726124e-07 0 0)
(0.1543367 0 0 6.421212e-05 0 0)
(0.1543363 0 0 6.421194e-05 0 0)
(0.9842477 0 0 0.0009341681 0 0)
(0.984245 0 0 0.0009341657 0 0)
(3.390085 0 0 0.005552335 0 0)
(3.390078 0 0 0.005552323 0 0)
(8.466715 0 0 0.02061092 0 0)
(8.466702 0 0 0.02061088 0 0)
(17.22647 0 0 0.05683068 0 0)
(17.22646 0 0 0.05683063 0 0)
(30.29738 -3.210283e-18 0 0.1273054 0 0)
(30.29737 3.210282e-18 0 0.1273054 0 0)
(47.77236 0 0 0.2447306 0 0)
(47.77236 0 0 0.2447306 0 0)
(69.31361 0 0 0.4194095 0 0)
(69.31363 1.914547e-17 0 0.4194097 0 0)
(94.01101 0 0 0.6563558 0 0)
(94.01107 0 0 0.6563563 0 0)
(138.687 0 0 1.096721 0 0)
(138.6872 0 0 1.096722 0 0)
(190.9416 1.328106e-16 0 1.689366 0 0)
(190.9418 -1.328108e-16 0 1.689368 0 0)
(250.5533 0 0 2.461196 0 0)
(250.5536 0 0 2.461199 0 0)
(317.3214 -2.450753e-16 0 3.444208 0 0)
(317.3218 2.450756e-16 0 3.444213 0 0)
(391.1802 0 0 4.677423 0 0)
(391.1808 0 0 4.677431 0 0)
(472.0857 3.997198e-16 0 6.206467 0 0)
(472.0865 0 0 6.206478 0 0)
(559.9136 0 0 8.08252 0 0)
(559.9145 0 0 8.082534 0 0)
(654.3656 -1.207875e-15 0 10.36048 0 0)
(654.3666 0 0 10.36049 0 0)
(754.8865 0 0 13.09619 0 0)
(754.8875 0 0 13.09621 0 0)
(860.603 3.449059e-15 0 16.34283 0 0)
(860.604 -1.724532e-15 0 16.34285 0 0)
(970.2962 0 0 20.14652 0 0)
(970.2973 0 0 20.14654 0 0)
(1082.416 -4.687913e-15 0 24.54173 0 0)
(1082.417 0 0 24.54176 0 0)
(1195.135 -5.369534e-15 0 29.54688 0 0)
(1195.137 0 0 29.54692 0 0)
(1306.438 0 0 35.16061 0 0)
(1306.44 0 0 35.16065 0 0)
(1414.224 6.802942e-15 0 41.35907 0 0)
(1414.225 0 0 41.35911 0 0)
(1516.414 7.526145e-15 0 48.09457 0 0)
(1516.415 0 0 48.09461 0 0)
(1611.047 1.646443e-14 0 55.29547 0 0)
(1611.049 0 0 55.29552 0 0)
(1696.357 0 0 62.86738 0 0)
(1696.359 0 0 62.86743 0 0)
(1770.82 0 0 70.69529 0 0)
(1770.821 0 0 70.69535 0 0)
(1833.181 0 0 78.64668 0 0)
(1833.182 0 0 78.64674 0 0)
(1882.463 -2.111798e-14 0 86.5751 0 0)
(1882.464 2.111799e-14 0 86.57515 0 0)
(1917.961 -2.188941e-14 0 94.32441 0 0)
(1917.962 0 0 94.32447 0 0)
(1939.223 6.738195e-14 0 101.733 0 0)
(1939.223 0 0 101.7331 0 0)
(1946.013 0 0 108.6363 0 0)
(1946.014 0 0 108.6364 0 0)
(1938.283 -4.590877e-14 0 114.8694 0 0)
(1938.285 0 0 114.8695 0 0)
(1916.147 0 0 120.2703 0 0)
(1916.149 0 0 120.2704 0 0)
(1879.867 -9.020509e-14 0 124.6834 0 0)
(1879.868 4.510258e-14 0 124.6835 0 0)
(1829.835 0 0 127.9621 0 0)
(1829.836 0 0 127.9622 0 0)
(1766.566 0 0 129.9732 0 0)
(1766.568 0 0 129.9734 0 0)
(1690.699 0 0 130.5999 0 0)
(1690.701 0 0 130.6001 0 0)
(1602.997 0 0 129.7463 0 0)
(1602.999 0 0 129.7464 0 0)
(1504.363 0 0 127.342 0 0)
(1504.365 0 0 127.3422 0 0)
(1395.87 0 0 123.3483 0 0)
(1395.873 0 0 123.3486 0 0)
(1278.811 1.202065e-13 0 117.7664 0 0)
(1278.814 0 0 117.7667 0 0)
(1154.777 5.372474e-14 0 110.649 0 0)
(1154.78 0 0 110.6493 0 0)
(1025.777 0 0 102.117 0 0)
(1025.78 0 0 102.1173 0 0)
(894.3819 0 0 92.38155 0 0)
(894.3844 0 0 92.38181 0 0)
(763.8568 0 0 81.76671 0 0)
(763.8595 0 0 81.767 0 0)
(638.1557 -5.626089e-14 0 70.72086 0 0)
(638.158 0 0 70.72112 0 0)
(521.6102 -4.525413e-14 0 59.79277 0 0)
(521.6123 4.525432e-14 0 59.79301 0 0)
(418.2077 0 0 49.55349 0 0)
(418.2095 0 0 49.55369 0 0)
(330.628 0 0 40.47343 0 0)
(330.6292 0 0 40.47358 0 0)
(259.5528 0 0 32.81261 0 0)
(259.5536 0 0 32.81271 0 0)
(203.7184 0 0 26.59066 0 0)
(203.7189 0 0 26.59073 0 0)
(160.6547 0 0 21.6488 0 0)
(160.6551 0 0 21.64884 0 0)
(127.5895 1.992281e-14 0 17.75038 0 0)
(127.5897 -1.992284e-14 0 17.75041 0 0)
(102.0568 0 0 14.66048 0 0)
(102.0569 0 0 14.66049 0 0)
(82.11907 0 0 12.18343 0 0)
(82.11913 0 0 12.18343 0 0)
(66.34649 9.828794e-15 0 10.16965 0 0)
(66.34652 -9.828799e-15 0 10.16965 0 0)
(53.71031 0 0 8.508981 0 0)
(53.71034 0 0 8.508984 0 0)
(43.47349 0 0 7.121207 0 0)
(43.4735 0 0 7.12121 0 0)
(35.10465 0 0 5.947847 0 0)
(35.10465 0 0 5.947847 0 0)
(28.21642 1.566437e-14 0 4.946026 0 0)
(28.21644 0 0 4.946029 0 0)
(22.52208 0 0 4.084037 0 0)
(22.52208 6.152715e-15 0 4.084037 0 0)
(17.8078 0 0 3.33866 0 0)
(17.8078 0 0 3.33866 0 0)
(13.90781 0 0 2.692275 0 0)
(13.90781 0 0 2.692275 0 0)
(10.68356 0 0 2.130042 0 0)
(10.68357 5.52646e-15 0 2.130043 0 0)
(8.027118 0 0 1.643702 0 0)
(8.027123 0 0 1.643703 0 0)
(5.863911 0 0 1.230059 0 0)
(5.863918 0 0 1.23006 0 0)
(4.087204 0 0 0.8761046 0 0)
(4.087207 0 0 0.8761051 0 0)
(2.746063 0 0 0.5999428 0 0)
(2.746058 0 0 0.5999417 0 0)
(1.502812 0 0 0.3336943 0 0)
(1.502804 0 0 0.3336926 0 0)
(1.180222 0 0 0.2654994 0 0)
(1.180221 0 0 0.2654993 0 0)
(-0.2299341 -0 -0 -0.05220968 -0 -0)
(-0.2299329 -0 -0 -0.0522094 -0 -0)
(0.3347905 2.66068e-16 0 0.07640109 0 0)
(0.3347899 0 0 0.07640094 0 0)
)
;

boundaryField
{
    leftandright
    {
        type            cyclic;
        value           nonuniform List<symmTensor> 
150
(
(0.002982574 0 0 2.726128e-07 0 0)
(0.1543365 0 0 6.421203e-05 0 0)
(0.9842463 0 0 0.0009341669 0 0)
(3.390082 0 0 0.005552329 0 0)
(8.466709 0 0 0.0206109 0 0)
(17.22646 0 0 0.05683065 0 0)
(30.29738 1.765305e-33 0 0.1273054 0 0)
(47.77236 0 0 0.2447306 0 0)
(69.31362 9.572731e-18 0 0.4194096 0 0)
(94.01104 0 0 0.656356 0 0)
(138.6871 0 0 1.096721 0 0)
(190.9417 1.041153e-32 0 1.689367 0 0)
(250.5534 0 0 2.461197 0 0)
(317.3216 -6.367976e-32 0 3.444211 0 0)
(391.1805 0 0 4.677427 0 0)
(472.0861 1.998601e-16 0 6.206473 0 0)
(559.9141 0 0 8.082527 0 0)
(654.3661 -6.03938e-16 0 10.36048 0 0)
(754.887 0 0 13.0962 0 0)
(860.6035 8.622654e-16 0 16.34284 0 0)
(970.2967 0 0 20.14653 0 0)
(1082.416 -2.343958e-15 0 24.54174 0 0)
(1195.136 -2.684769e-15 0 29.5469 0 0)
(1306.439 0 0 35.16063 0 0)
(1414.224 3.401473e-15 0 41.35909 0 0)
(1516.414 3.763075e-15 0 48.09459 0 0)
(1611.048 8.232219e-15 0 55.2955 0 0)
(1696.358 0 0 62.8674 0 0)
(1770.821 0 0 70.69532 0 0)
(1833.181 0 0 78.64671 0 0)
(1882.464 0 0 86.57513 0 0)
(1917.961 -1.094471e-14 0 94.32444 0 0)
(1939.223 3.369098e-14 0 101.7331 0 0)
(1946.014 0 0 108.6363 0 0)
(1938.284 -2.29544e-14 0 114.8694 0 0)
(1916.148 0 0 120.2704 0 0)
(1879.868 -2.255128e-14 0 124.6834 0 0)
(1829.835 0 0 127.9622 0 0)
(1766.567 0 0 129.9733 0 0)
(1690.7 0 0 130.6 0 0)
(1602.998 0 0 129.7463 0 0)
(1504.364 0 0 127.3421 0 0)
(1395.872 0 0 123.3485 0 0)
(1278.812 6.01033e-14 0 117.7666 0 0)
(1154.778 2.686241e-14 0 110.6491 0 0)
(1025.778 0 0 102.1172 0 0)
(894.3832 0 0 92.38168 0 0)
(763.8581 0 0 81.76686 0 0)
(638.1569 -2.813049e-14 0 70.72099 0 0)
(521.6112 -5.011629e-29 0 59.79289 0 0)
(418.2086 0 0 49.55359 0 0)
(330.6286 0 0 40.47351 0 0)
(259.5532 0 0 32.81266 0 0)
(203.7187 0 0 26.5907 0 0)
(160.6549 0 0 21.64882 0 0)
(127.5896 1.750324e-30 0 17.7504 0 0)
(102.0568 0 0 14.66049 0 0)
(82.1191 0 0 12.18343 0 0)
(66.34651 2.005609e-30 0 10.16965 0 0)
(53.71033 0 0 8.508982 0 0)
(43.4735 0 0 7.121209 0 0)
(35.10465 0 0 5.947847 0 0)
(28.21643 7.832188e-15 0 4.946027 0 0)
(22.52208 3.076358e-15 0 4.084037 0 0)
(17.8078 0 0 3.33866 0 0)
(13.90781 0 0 2.692275 0 0)
(10.68357 2.76323e-15 0 2.130042 0 0)
(8.027121 0 0 1.643702 0 0)
(5.863914 0 0 1.23006 0 0)
(4.087206 0 0 0.8761048 0 0)
(2.746061 0 0 0.5999423 0 0)
(1.502808 0 0 0.3336935 0 0)
(1.180222 0 0 0.2654994 0 0)
(-0.2299335 -0 -0 -0.05220954 -0 -0)
(0.3347902 1.330339e-16 0 0.07640102 0 0)
(0.002982574 0 0 2.726128e-07 0 0)
(0.1543365 0 0 6.421203e-05 0 0)
(0.9842463 0 0 0.0009341669 0 0)
(3.390082 0 0 0.005552329 0 0)
(8.466709 0 0 0.0206109 0 0)
(17.22646 0 0 0.05683065 0 0)
(30.29738 1.961451e-33 0 0.1273054 0 0)
(47.77236 0 0 0.2447306 0 0)
(69.31362 9.572731e-18 0 0.4194096 0 0)
(94.01104 0 0 0.656356 0 0)
(138.6871 0 0 1.096721 0 0)
(190.9417 1.041153e-32 0 1.689367 0 0)
(250.5534 0 0 2.461197 0 0)
(317.3216 -6.367976e-32 0 3.444211 0 0)
(391.1805 0 0 4.677427 0 0)
(472.0861 1.998601e-16 0 6.206473 0 0)
(559.9141 0 0 8.082527 0 0)
(654.3661 -6.03938e-16 0 10.36048 0 0)
(754.887 0 0 13.0962 0 0)
(860.6035 8.622654e-16 0 16.34284 0 0)
(970.2967 0 0 20.14653 0 0)
(1082.416 -2.343958e-15 0 24.54174 0 0)
(1195.136 -2.684769e-15 0 29.5469 0 0)
(1306.439 0 0 35.16063 0 0)
(1414.224 3.401473e-15 0 41.35909 0 0)
(1516.414 3.763075e-15 0 48.09459 0 0)
(1611.048 8.232219e-15 0 55.2955 0 0)
(1696.358 0 0 62.8674 0 0)
(1770.821 0 0 70.69532 0 0)
(1833.181 0 0 78.64671 0 0)
(1882.464 0 0 86.57513 0 0)
(1917.961 -1.094471e-14 0 94.32444 0 0)
(1939.223 3.369098e-14 0 101.7331 0 0)
(1946.014 0 0 108.6363 0 0)
(1938.284 -2.29544e-14 0 114.8694 0 0)
(1916.148 0 0 120.2704 0 0)
(1879.868 -2.255128e-14 0 124.6834 0 0)
(1829.835 0 0 127.9622 0 0)
(1766.567 0 0 129.9733 0 0)
(1690.7 0 0 130.6 0 0)
(1602.998 0 0 129.7463 0 0)
(1504.364 0 0 127.3421 0 0)
(1395.872 0 0 123.3485 0 0)
(1278.812 6.01033e-14 0 117.7666 0 0)
(1154.778 2.686241e-14 0 110.6491 0 0)
(1025.778 0 0 102.1172 0 0)
(894.3832 0 0 92.38168 0 0)
(763.8581 0 0 81.76686 0 0)
(638.1569 -2.813049e-14 0 70.72099 0 0)
(521.6112 -5.011629e-29 0 59.79289 0 0)
(418.2086 0 0 49.55359 0 0)
(330.6286 0 0 40.47351 0 0)
(259.5532 0 0 32.81266 0 0)
(203.7187 0 0 26.5907 0 0)
(160.6549 0 0 21.64882 0 0)
(127.5896 1.750324e-30 0 17.7504 0 0)
(102.0568 0 0 14.66049 0 0)
(82.1191 0 0 12.18343 0 0)
(66.34651 2.005609e-30 0 10.16965 0 0)
(53.71033 0 0 8.508982 0 0)
(43.4735 0 0 7.121209 0 0)
(35.10465 0 0 5.947847 0 0)
(28.21643 7.832188e-15 0 4.946027 0 0)
(22.52208 3.076358e-15 0 4.084037 0 0)
(17.8078 0 0 3.33866 0 0)
(13.90781 0 0 2.692275 0 0)
(10.68357 2.76323e-15 0 2.130042 0 0)
(8.027121 0 0 1.643702 0 0)
(5.863914 0 0 1.23006 0 0)
(4.087206 0 0 0.8761048 0 0)
(2.746061 0 0 0.5999423 0 0)
(1.502808 0 0 0.3336935 0 0)
(1.180222 0 0 0.2654994 0 0)
(-0.2299335 -0 -0 -0.05220954 -0 -0)
(0.3347902 1.330339e-16 0 0.07640102 0 0)
)
;
    }
    wall
    {
        type            calculated;
        value           nonuniform List<symmTensor> 2((3.985892e-07 0 0 2.59083e-07 0 0) (3.98588e-07 0 0 2.590822e-07 0 0));
    }
    frontAndBack
    {
        type            empty;
    }
    middle
    {
        type            symmetryPlane;
        value           nonuniform List<symmTensor> 2((0.3347905 0 0 0.07640109 0 0) (0.3347899 0 0 0.07640094 0 0));
    }
}


// ************************************************************************* //
