/*--------------------------------*- C++ -*----------------------------------*\
| =========                 |                                                 |
| \\      /  F ield         | foam-extend: Open Source CFD                    |
|  \\    /   O peration     | Version:     4.0                                |
|   \\  /    A nd           | Web:         http://www.foam-extend.org         |
|    \\/     M anipulation  |                                                 |
\*---------------------------------------------------------------------------*/
FoamFile
{
    version     2.0;
    format      ascii;
    class       volSymmTensorField;
    location    "100";
    object      NLTPlus;
}
// * * * * * * * * * * * * * * * * * * * * * * * * * * * * * * * * * * * * * //

dimensions      [0 2 -2 0 0 0 0];

internalField   nonuniform List<symmTensor> 
150
(
(7.550831e-06 0 0 6.901599e-10 0 0)
(7.55081e-06 0 0 6.90158e-10 0 0)
(0.0003907258 0 0 1.625623e-07 0 0)
(0.0003907247 0 0 1.625619e-07 0 0)
(0.002491766 0 0 2.364982e-06 0 0)
(0.00249176 0 0 2.364976e-06 0 0)
(0.008582495 0 0 1.405654e-05 0 0)
(0.008582476 0 0 1.405651e-05 0 0)
(0.02143472 0 0 5.217953e-05 0 0)
(0.02143469 0 0 5.217945e-05 0 0)
(0.04361132 0 0 0.0001438751 0 0)
(0.04361128 0 0 0.000143875 0 0)
(0.07670223 -8.127299e-21 0 0.0003222923 0 0)
(0.0767022 8.127296e-21 0 0.0003222921 0 0)
(0.1209427 0 0 0.000619571 0 0)
(0.1209427 0 0 0.0006195711 0 0)
(0.1754775 0 0 0.001061796 0 0)
(0.1754775 4.846953e-20 0 0.001061797 0 0)
(0.2380026 0 0 0.00166166 0 0)
(0.2380027 0 0 0.001661661 0 0)
(0.3511064 0 0 0.002776508 0 0)
(0.3511067 0 0 0.002776511 0 0)
(0.4833964 3.362293e-19 0 0.004276875 0 0)
(0.483397 -3.362298e-19 0 0.004276881 0 0)
(0.6343121 0 0 0.006230875 0 0)
(0.6343129 0 0 0.006230884 0 0)
(0.8033453 -6.204437e-19 0 0.008719514 0 0)
(0.8033465 6.204447e-19 0 0.008719527 0 0)
(0.9903297 0 0 0.01184158 0 0)
(0.9903312 0 0 0.0118416 0 0)
(1.195154 1.011949e-18 0 0.01571258 0 0)
(1.195156 0 0 0.0157126 0 0)
(1.417503 0 0 0.02046208 0 0)
(1.417505 0 0 0.02046211 0 0)
(1.656622 -3.057912e-18 0 0.02622905 0 0)
(1.656624 0 0 0.0262291 0 0)
(1.911105 0 0 0.03315492 0 0)
(1.911108 0 0 0.03315497 0 0)
(2.178742 8.731796e-18 0 0.04137426 0 0)
(2.178744 -4.365904e-18 0 0.04137431 0 0)
(2.456446 0 0 0.05100384 0 0)
(2.456449 0 0 0.0510039 0 0)
(2.740293 -1.186814e-17 0 0.06213096 0 0)
(2.740296 0 0 0.06213103 0 0)
(3.025659 -1.359376e-17 0 0.07480223 0 0)
(3.025662 0 0 0.07480232 0 0)
(3.307438 0 0 0.08901419 0 0)
(3.307442 0 0 0.08901429 0 0)
(3.580313 1.722264e-17 0 0.1047065 0 0)
(3.580317 0 0 0.1047066 0 0)
(3.839022 1.905353e-17 0 0.1217584 0 0)
(3.839025 0 0 0.1217585 0 0)
(4.078601 4.16821e-17 0 0.1399885 0 0)
(4.078604 0 0 0.1399887 0 0)
(4.294576 0 0 0.1591579 0 0)
(4.294579 0 0 0.1591581 0 0)
(4.483088 0 0 0.1789754 0 0)
(4.483092 0 0 0.1789756 0 0)
(4.640964 0 0 0.1991055 0 0)
(4.640967 0 0 0.1991057 0 0)
(4.765729 -5.346323e-17 0 0.2191775 0 0)
(4.765732 5.346327e-17 0 0.2191776 0 0)
(4.855597 -5.541622e-17 0 0.238796 0 0)
(4.855599 0 0 0.2387961 0 0)
(4.909424 1.705872e-16 0 0.257552 0 0)
(4.909427 0 0 0.2575521 0 0)
(4.926615 0 0 0.2750285 0 0)
(4.926619 0 0 0.2750288 0 0)
(4.907045 -1.162247e-16 0 0.2908085 0 0)
(4.907049 0 0 0.2908088 0 0)
(4.851006 0 0 0.3044818 0 0)
(4.85101 0 0 0.3044821 0 0)
(4.759157 -2.283673e-16 0 0.3156541 0 0)
(4.759161 1.141837e-16 0 0.3156543 0 0)
(4.632492 0 0 0.3239547 0 0)
(4.632497 0 0 0.323955 0 0)
(4.472319 0 0 0.3290461 0 0)
(4.472325 0 0 0.3290465 0 0)
(4.280251 0 0 0.3306326 0 0)
(4.280257 0 0 0.3306331 0 0)
(4.05822 0 0 0.3284716 0 0)
(4.058225 0 0 0.328472 0 0)
(3.808514 0 0 0.3223848 0 0)
(3.808519 0 0 0.3223852 0 0)
(3.533849 0 0 0.3122743 0 0)
(3.533856 0 0 0.3122749 0 0)
(3.237496 3.043202e-16 0 0.2981429 0 0)
(3.237503 0 0 0.2981435 0 0)
(2.923486 1.36012e-16 0 0.2801241 0 0)
(2.923494 0 0 0.2801248 0 0)
(2.596903 0 0 0.2585241 0 0)
(2.596911 0 0 0.2585249 0 0)
(2.264258 0 0 0.2338773 0 0)
(2.264264 0 0 0.233878 0 0)
(1.933815 0 0 0.2070043 0 0)
(1.933822 0 0 0.2070051 0 0)
(1.615584 -1.424326e-16 0 0.1790402 0 0)
(1.61559 0 0 0.1790408 0 0)
(1.320532 -1.145674e-16 0 0.1513741 0 0)
(1.320537 1.145679e-16 0 0.1513747 0 0)
(1.058754 0 0 0.1254519 0 0)
(1.058758 0 0 0.1254524 0 0)
(0.8370328 0 0 0.1024644 0 0)
(0.837036 0 0 0.1024648 0 0)
(0.6570956 0 0 0.08306989 0 0)
(0.6570977 0 0 0.08307016 0 0)
(0.5157428 0 0 0.06731813 0 0)
(0.5157441 0 0 0.0673183 0 0)
(0.4067209 0 0 0.05480708 0 0)
(0.4067218 0 0 0.0548072 0 0)
(0.3230114 5.043749e-17 0 0.04493768 0 0)
(0.3230119 -5.043756e-17 0 0.04493775 0 0)
(0.2583716 0 0 0.03711513 0 0)
(0.2583719 0 0 0.03711517 0 0)
(0.2078964 0 0 0.03084412 0 0)
(0.2078965 0 0 0.03084413 0 0)
(0.1679658 2.488302e-17 0 0.02574594 0 0)
(0.1679659 -2.488303e-17 0 0.02574595 0 0)
(0.1359755 0 0 0.02154172 0 0)
(0.1359755 0 0 0.02154173 0 0)
(0.1100595 0 0 0.01802837 0 0)
(0.1100595 0 0 0.01802838 0 0)
(0.08887253 0 0 0.01505784 0 0)
(0.08887253 0 0 0.01505784 0 0)
(0.07143399 3.965664e-17 0 0.01252158 0 0)
(0.07143403 0 0 0.01252159 0 0)
(0.05701792 0 0 0.01033933 0 0)
(0.05701792 1.557649e-17 0 0.01033933 0 0)
(0.04508303 0 0 0.008452305 0 0)
(0.04508303 0 0 0.008452305 0 0)
(0.03520964 0 0 0.006815886 0 0)
(0.03520964 0 0 0.006815886 0 0)
(0.027047 0 0 0.005392512 0 0)
(0.02704701 1.399104e-17 0 0.005392513 0 0)
(0.02032182 0 0 0.00416127 0 0)
(0.02032183 0 0 0.004161273 0 0)
(0.01484534 0 0 0.003114073 0 0)
(0.01484536 0 0 0.003114077 0 0)
(0.01034735 0 0 0.002217986 0 0)
(0.01034736 0 0 0.002217988 0 0)
(0.006952059 0 0 0.001518843 0 0)
(0.006952046 0 0 0.00151884 0 0)
(0.003804588 0 0 0.0008447958 0 0)
(0.003804568 0 0 0.0008447913 0 0)
(0.002987904 0 0 0.0006721504 0 0)
(0.002987902 0 0 0.0006721501 0 0)
(-0.0005821117 -0 -0 -0.0001321764 -0 -0)
(-0.0005821085 -0 -0 -0.0001321757 -0 -0)
(0.0008475709 6.735898e-19 0 0.0001934205 0 0)
(0.0008475693 0 0 0.0001934201 0 0)
)
;

boundaryField
{
    leftandright
    {
        type            cyclic;
        value           nonuniform List<symmTensor> 
150
(
(7.55082e-06 0 0 6.901589e-10 0 0)
(0.0003907253 0 0 1.625621e-07 0 0)
(0.002491763 0 0 2.364979e-06 0 0)
(0.008582485 0 0 1.405653e-05 0 0)
(0.02143471 0 0 5.217949e-05 0 0)
(0.0436113 0 0 0.0001438751 0 0)
(0.07670222 4.469128e-36 0 0.0003222922 0 0)
(0.1209427 0 0 0.0006195711 0 0)
(0.1754775 2.423476e-20 0 0.001061797 0 0)
(0.2380026 0 0 0.001661661 0 0)
(0.3511066 0 0 0.002776509 0 0)
(0.4833967 2.63583e-35 0 0.004276878 0 0)
(0.6343125 0 0 0.00623088 0 0)
(0.8033459 -1.612146e-34 0 0.00871952 0 0)
(0.9903304 0 0 0.01184159 0 0)
(1.195155 5.059749e-19 0 0.01571259 0 0)
(1.417504 0 0 0.02046209 0 0)
(1.656623 -1.528957e-18 0 0.02622908 0 0)
(1.911106 0 0 0.03315494 0 0)
(2.178743 2.18295e-18 0 0.04137428 0 0)
(2.456447 0 0 0.05100387 0 0)
(2.740295 -5.934071e-18 0 0.06213099 0 0)
(3.025661 -6.796883e-18 0 0.07480228 0 0)
(3.30744 0 0 0.08901424 0 0)
(3.580315 8.611324e-18 0 0.1047065 0 0)
(3.839024 9.526771e-18 0 0.1217585 0 0)
(4.078603 2.084106e-17 0 0.1399886 0 0)
(4.294578 0 0 0.159158 0 0)
(4.48309 0 0 0.1789755 0 0)
(4.640966 0 0 0.1991056 0 0)
(4.765731 0 0 0.2191775 0 0)
(4.855598 -2.770812e-17 0 0.2387961 0 0)
(4.909425 8.529363e-17 0 0.257552 0 0)
(4.926617 0 0 0.2750287 0 0)
(4.907047 -5.811239e-17 0 0.2908086 0 0)
(4.851008 0 0 0.304482 0 0)
(4.759159 -5.709185e-17 0 0.3156542 0 0)
(4.632495 0 0 0.3239549 0 0)
(4.472322 0 0 0.3290463 0 0)
(4.280254 0 0 0.3306328 0 0)
(4.058222 0 0 0.3284718 0 0)
(3.808517 0 0 0.322385 0 0)
(3.533852 0 0 0.3122746 0 0)
(3.2375 1.521602e-16 0 0.2981432 0 0)
(2.92349 6.800609e-17 0 0.2801244 0 0)
(2.596907 0 0 0.2585245 0 0)
(2.264261 0 0 0.2338777 0 0)
(1.933818 0 0 0.2070047 0 0)
(1.615587 -7.121644e-17 0 0.1790405 0 0)
(1.320535 -1.268767e-31 0 0.1513744 0 0)
(1.058756 0 0 0.1254521 0 0)
(0.8370344 0 0 0.1024646 0 0)
(0.6570967 0 0 0.08307002 0 0)
(0.5157434 0 0 0.06731822 0 0)
(0.4067213 0 0 0.05480714 0 0)
(0.3230117 4.431201e-33 0 0.04493771 0 0)
(0.2583718 0 0 0.03711515 0 0)
(0.2078965 0 0 0.03084413 0 0)
(0.1679658 5.077492e-33 0 0.02574594 0 0)
(0.1359755 0 0 0.02154173 0 0)
(0.1100595 0 0 0.01802838 0 0)
(0.08887253 0 0 0.01505784 0 0)
(0.07143401 1.982832e-17 0 0.01252159 0 0)
(0.05701792 7.788247e-18 0 0.01033933 0 0)
(0.04508303 0 0 0.008452305 0 0)
(0.03520964 0 0 0.006815886 0 0)
(0.027047 6.995518e-18 0 0.005392512 0 0)
(0.02032182 0 0 0.004161271 0 0)
(0.01484535 0 0 0.003114075 0 0)
(0.01034736 0 0 0.002217987 0 0)
(0.006952053 0 0 0.001518841 0 0)
(0.003804578 0 0 0.0008447936 0 0)
(0.002987903 0 0 0.0006721503 0 0)
(-0.0005821101 -0 -0 -0.0001321761 -0 -0)
(0.0008475701 3.367946e-19 0 0.0001934203 0 0)
(7.55082e-06 0 0 6.901589e-10 0 0)
(0.0003907253 0 0 1.625621e-07 0 0)
(0.002491763 0 0 2.364979e-06 0 0)
(0.008582485 0 0 1.405653e-05 0 0)
(0.02143471 0 0 5.217949e-05 0 0)
(0.0436113 0 0 0.0001438751 0 0)
(0.07670222 4.965698e-36 0 0.0003222922 0 0)
(0.1209427 0 0 0.0006195711 0 0)
(0.1754775 2.423476e-20 0 0.001061797 0 0)
(0.2380026 0 0 0.001661661 0 0)
(0.3511066 0 0 0.002776509 0 0)
(0.4833967 2.63583e-35 0 0.004276878 0 0)
(0.6343125 0 0 0.00623088 0 0)
(0.8033459 -1.612146e-34 0 0.00871952 0 0)
(0.9903304 0 0 0.01184159 0 0)
(1.195155 5.059749e-19 0 0.01571259 0 0)
(1.417504 0 0 0.02046209 0 0)
(1.656623 -1.528957e-18 0 0.02622908 0 0)
(1.911106 0 0 0.03315494 0 0)
(2.178743 2.18295e-18 0 0.04137428 0 0)
(2.456447 0 0 0.05100387 0 0)
(2.740295 -5.934071e-18 0 0.06213099 0 0)
(3.025661 -6.796883e-18 0 0.07480228 0 0)
(3.30744 0 0 0.08901424 0 0)
(3.580315 8.611324e-18 0 0.1047065 0 0)
(3.839024 9.526771e-18 0 0.1217585 0 0)
(4.078603 2.084106e-17 0 0.1399886 0 0)
(4.294578 0 0 0.159158 0 0)
(4.48309 0 0 0.1789755 0 0)
(4.640966 0 0 0.1991056 0 0)
(4.765731 0 0 0.2191775 0 0)
(4.855598 -2.770812e-17 0 0.2387961 0 0)
(4.909425 8.529363e-17 0 0.257552 0 0)
(4.926617 0 0 0.2750287 0 0)
(4.907047 -5.811239e-17 0 0.2908086 0 0)
(4.851008 0 0 0.304482 0 0)
(4.759159 -5.709185e-17 0 0.3156542 0 0)
(4.632495 0 0 0.3239549 0 0)
(4.472322 0 0 0.3290463 0 0)
(4.280254 0 0 0.3306328 0 0)
(4.058222 0 0 0.3284718 0 0)
(3.808517 0 0 0.322385 0 0)
(3.533852 0 0 0.3122746 0 0)
(3.2375 1.521602e-16 0 0.2981432 0 0)
(2.92349 6.800609e-17 0 0.2801244 0 0)
(2.596907 0 0 0.2585245 0 0)
(2.264261 0 0 0.2338777 0 0)
(1.933818 0 0 0.2070047 0 0)
(1.615587 -7.121644e-17 0 0.1790405 0 0)
(1.320535 -1.268767e-31 0 0.1513744 0 0)
(1.058756 0 0 0.1254521 0 0)
(0.8370344 0 0 0.1024646 0 0)
(0.6570967 0 0 0.08307002 0 0)
(0.5157434 0 0 0.06731822 0 0)
(0.4067213 0 0 0.05480714 0 0)
(0.3230117 4.431201e-33 0 0.04493771 0 0)
(0.2583718 0 0 0.03711515 0 0)
(0.2078965 0 0 0.03084413 0 0)
(0.1679658 5.077492e-33 0 0.02574594 0 0)
(0.1359755 0 0 0.02154173 0 0)
(0.1100595 0 0 0.01802838 0 0)
(0.08887253 0 0 0.01505784 0 0)
(0.07143401 1.982832e-17 0 0.01252159 0 0)
(0.05701792 7.788247e-18 0 0.01033933 0 0)
(0.04508303 0 0 0.008452305 0 0)
(0.03520964 0 0 0.006815886 0 0)
(0.027047 6.995518e-18 0 0.005392512 0 0)
(0.02032182 0 0 0.004161271 0 0)
(0.01484535 0 0 0.003114075 0 0)
(0.01034736 0 0 0.002217987 0 0)
(0.006952053 0 0 0.001518841 0 0)
(0.003804578 0 0 0.0008447936 0 0)
(0.002987903 0 0 0.0006721503 0 0)
(-0.0005821101 -0 -0 -0.0001321761 -0 -0)
(0.0008475701 3.367946e-19 0 0.0001934203 0 0)
)
;
    }
    wall
    {
        type            calculated;
        value           nonuniform List<symmTensor> 2((1.009087e-09 0 0 6.559063e-10 0 0) (1.009084e-09 0 0 6.559044e-10 0 0));
    }
    frontAndBack
    {
        type            empty;
    }
    middle
    {
        type            symmetryPlane;
        value           nonuniform List<symmTensor> 2((0.0008475709 0 0 0.0001934205 0 0) (0.0008475693 0 0 0.0001934201 0 0));
    }
}


// ************************************************************************* //
