/*--------------------------------*- C++ -*----------------------------------*\
| =========                 |                                                 |
| \\      /  F ield         | foam-extend: Open Source CFD                    |
|  \\    /   O peration     | Version:     4.0                                |
|   \\  /    A nd           | Web:         http://www.foam-extend.org         |
|    \\/     M anipulation  |                                                 |
\*---------------------------------------------------------------------------*/
FoamFile
{
    version     2.0;
    format      ascii;
    class       volScalarField;
    location    "100";
    object      nut;
}
// * * * * * * * * * * * * * * * * * * * * * * * * * * * * * * * * * * * * * //

dimensions      [0 2 -1 0 0 0 0];

internalField   nonuniform List<scalar> 
150
(
6.399168e-09
6.399169e-09
3.316018e-07
3.316019e-07
2.118534e-06
2.118534e-06
7.317715e-06
7.317716e-06
1.836125e-05
1.836125e-05
3.76218e-05
3.76218e-05
6.679577e-05
6.679578e-05
0.0001065065
0.0001065065
0.0001563507
0.0001563508
0.0002153084
0.0002153084
0.0003251282
0.0003251283
0.0004608266
0.0004608267
0.0006234236
0.0006234237
0.0008145548
0.000814555
0.001036346
0.001036346
0.001291316
0.001291316
0.001582303
0.001582304
0.001912419
0.00191242
0.002285013
0.002285013
0.002703641
0.002703641
0.003172036
0.003172036
0.003694064
0.003694065
0.004273675
0.004273676
0.004914846
0.004914846
0.005621519
0.005621519
0.006397539
0.00639754
0.007246592
0.007246593
0.008172142
0.008172143
0.009177384
0.009177385
0.0102652
0.0102652
0.01143814
0.01143814
0.01269839
0.01269839
0.0140478
0.0140478
0.01548774
0.01548774
0.01701898
0.01701898
0.01864164
0.01864164
0.02035507
0.02035507
0.02215781
0.02215781
0.02404756
0.02404756
0.02602113
0.02602113
0.02807449
0.02807449
0.03020281
0.03020281
0.03240057
0.03240057
0.03466171
0.03466171
0.03697982
0.03697982
0.03934842
0.03934842
0.04176123
0.04176123
0.04421252
0.04421252
0.04669738
0.04669738
0.04921195
0.04921195
0.05175353
0.05175353
0.05432064
0.05432064
0.05691293
0.05691293
0.05953121
0.05953121
0.06217756
0.06217756
0.06485554
0.06485554
0.06757054
0.06757053
0.07033004
0.07033003
0.07314382
0.07314382
0.07602387
0.07602386
0.0789838
0.0789838
0.08203758
0.08203757
0.08519693
0.08519693
0.08846702
0.08846702
0.0918393
0.0918393
0.09528036
0.09528036
0.09871493
0.09871492
0.1021429
0.1021429
0.1056125
0.1056125
0.1091383
0.1091383
0.1126786
0.1126786
0.1161102
0.1161102
0.119209
0.119209
0.1216503
0.1216503
0.1230505
0.1230505
)
;

boundaryField
{
    leftandright
    {
        type            cyclic;
        value           nonuniform List<scalar> 
150
(
6.399169e-09
3.316018e-07
2.118534e-06
7.317716e-06
1.836125e-05
3.76218e-05
6.679577e-05
0.0001065065
0.0001563507
0.0002153084
0.0003251282
0.0004608267
0.0006234237
0.0008145549
0.001036346
0.001291316
0.001582304
0.001912419
0.002285013
0.002703641
0.003172036
0.003694064
0.004273675
0.004914846
0.005621519
0.00639754
0.007246592
0.008172142
0.009177384
0.0102652
0.01143814
0.01269839
0.0140478
0.01548774
0.01701898
0.01864164
0.02035507
0.02215781
0.02404756
0.02602113
0.02807449
0.03020281
0.03240057
0.03466171
0.03697982
0.03934842
0.04176123
0.04421252
0.04669738
0.04921195
0.05175353
0.05432064
0.05691293
0.05953121
0.06217756
0.06485554
0.06757054
0.07033004
0.07314382
0.07602387
0.0789838
0.08203757
0.08519693
0.08846702
0.0918393
0.09528036
0.09871492
0.1021429
0.1056125
0.1091383
0.1126786
0.1161102
0.119209
0.1216503
0.1230505
6.399169e-09
3.316018e-07
2.118534e-06
7.317716e-06
1.836125e-05
3.76218e-05
6.679577e-05
0.0001065065
0.0001563507
0.0002153084
0.0003251282
0.0004608267
0.0006234237
0.0008145549
0.001036346
0.001291316
0.001582304
0.001912419
0.002285013
0.002703641
0.003172036
0.003694064
0.004273675
0.004914846
0.005621519
0.00639754
0.007246592
0.008172142
0.009177384
0.0102652
0.01143814
0.01269839
0.0140478
0.01548774
0.01701898
0.01864164
0.02035507
0.02215781
0.02404756
0.02602113
0.02807449
0.03020281
0.03240057
0.03466171
0.03697982
0.03934842
0.04176123
0.04421252
0.04669738
0.04921195
0.05175353
0.05432064
0.05691293
0.05953121
0.06217756
0.06485554
0.06757054
0.07033004
0.07314382
0.07602387
0.0789838
0.08203757
0.08519693
0.08846702
0.0918393
0.09528036
0.09871492
0.1021429
0.1056125
0.1091383
0.1126786
0.1161102
0.119209
0.1216503
0.1230505
)
;
    }
    wall
    {
        type            nutLowReWallFunction;
        Cmu             0.09;
        kappa           0.41;
        E               9.8;
        value           nonuniform List<scalar> 2(8.545814e-13 8.545814e-13);
    }
    frontAndBack
    {
        type            empty;
    }
    middle
    {
        type            symmetryPlane;
        value           nonuniform List<scalar> 2(0.1230505 0.1230505);
    }
}


// ************************************************************************* //
