/*--------------------------------*- C++ -*----------------------------------*\
| =========                 |                                                 |
| \\      /  F ield         | foam-extend: Open Source CFD                    |
|  \\    /   O peration     | Version:     4.0                                |
|   \\  /    A nd           | Web:         http://www.foam-extend.org         |
|    \\/     M anipulation  |                                                 |
\*---------------------------------------------------------------------------*/
FoamFile
{
    version     2.0;
    format      ascii;
    class       volScalarField;
    location    "100";
    object      p;
}
// * * * * * * * * * * * * * * * * * * * * * * * * * * * * * * * * * * * * * //

dimensions      [0 2 -2 0 0 0 0];

internalField   nonuniform List<scalar> 
150
(
-6.833459e-09
-0.05000003
-4.334902e-05
-0.05004337
-0.0002224541
-0.05022248
-0.0007085111
-0.05070853
-0.001699629
-0.05169965
-0.003399662
-0.05339968
-0.006000561
-0.05600058
-0.009671252
-0.05967127
-0.0145523
-0.06455232
-0.02073861
-0.07073863
-0.02825716
-0.07825718
-0.03708209
-0.08708211
-0.04716553
-0.09716555
-0.05844049
-0.1084405
-0.0708143
-0.1208143
-0.08417163
-0.1341716
-0.09838085
-0.1483809
-0.113301
-0.163301
-0.1287883
-0.1787884
-0.1447026
-0.1947026
-0.1609113
-0.2109113
-0.1772941
-0.2272941
-0.1937444
-0.2437444
-0.2101709
-0.260171
-0.2264981
-0.2764982
-0.2426655
-0.2926655
-0.2586265
-0.3086265
-0.2743479
-0.3243479
-0.2898077
-0.3398078
-0.3049944
-0.3549945
-0.3199057
-0.3699057
-0.3345477
-0.3845477
-0.3489332
-0.3989332
-0.3630791
-0.4130791
-0.3770029
-0.427003
-0.3907211
-0.4407211
-0.4042466
-0.4542466
-0.4175882
-0.4675882
-0.4307487
-0.4807487
-0.4437242
-0.4937242
-0.4565022
-0.5065022
-0.469061
-0.519061
-0.4813678
-0.5313678
-0.4933766
-0.5433766
-0.5050254
-0.5550254
-0.5162322
-0.5662322
-0.5268897
-0.5768896
-0.5368609
-0.5868609
-0.545978
-0.595978
-0.5540509
-0.6040509
-0.5608894
-0.6108893
-0.5663349
-0.6163349
-0.5702897
-0.6202897
-0.5727264
-0.6227264
-0.5736757
-0.6236757
-0.5732025
-0.6232025
-0.5713847
-0.6213847
-0.5683022
-0.6183022
-0.564032
-0.614032
-0.5586479
-0.6086479
-0.5522181
-0.6022181
-0.5448006
-0.5948006
-0.536436
-0.586436
-0.5271333
-0.5771333
-0.5168569
-0.5668569
-0.5054523
-0.5554523
-0.4927844
-0.5427844
-0.4790716
-0.5290716
-0.465115
-0.515115
-0.4509272
-0.5009272
-0.439534
-0.489534
-0.4230684
-0.4730684
-0.4308216
-0.4808216
-0.3639241
-0.4139241
-0.5368357
-0.5868357
)
;

boundaryField
{
    leftandright
    {
        type            fan;
        patchType       cyclic;
        f               1(-0.1);
        value           nonuniform List<scalar> 
150
(
0.02499998
0.02495664
0.02477753
0.02429148
0.02330036
0.02160033
0.01899943
0.01532874
0.01044769
0.004261379
-0.003257172
-0.0120821
-0.02216554
-0.03344051
-0.04581431
-0.05917164
-0.07338086
-0.08830099
-0.1037884
-0.1197026
-0.1359113
-0.1522941
-0.1687444
-0.185171
-0.2014982
-0.2176655
-0.2336265
-0.2493479
-0.2648077
-0.2799945
-0.2949057
-0.3095477
-0.3239332
-0.3380791
-0.352003
-0.3657211
-0.3792466
-0.3925882
-0.4057487
-0.4187242
-0.4315022
-0.444061
-0.4563678
-0.4683766
-0.4800254
-0.4912322
-0.5018897
-0.5118609
-0.520978
-0.5290509
-0.5358893
-0.5413349
-0.5452897
-0.5477264
-0.5486757
-0.5482025
-0.5463847
-0.5433022
-0.539032
-0.5336479
-0.5272181
-0.5198006
-0.511436
-0.5021333
-0.4918569
-0.4804523
-0.4677844
-0.4540716
-0.440115
-0.4259272
-0.414534
-0.3980684
-0.4058216
-0.3389241
-0.5118357
-0.07500002
-0.07504336
-0.07522247
-0.07570852
-0.07669964
-0.07839967
-0.08100057
-0.08467126
-0.08955231
-0.09573862
-0.1032572
-0.1120821
-0.1221655
-0.1334405
-0.1458143
-0.1591716
-0.1733809
-0.188301
-0.2037884
-0.2197026
-0.2359113
-0.2522941
-0.2687444
-0.285171
-0.3014982
-0.3176655
-0.3336265
-0.3493479
-0.3648077
-0.3799945
-0.3949057
-0.4095477
-0.4239332
-0.4380791
-0.452003
-0.4657211
-0.4792466
-0.4925882
-0.5057487
-0.5187242
-0.5315022
-0.544061
-0.5563678
-0.5683766
-0.5800254
-0.5912322
-0.6018897
-0.6118609
-0.620978
-0.6290509
-0.6358893
-0.6413349
-0.6452897
-0.6477264
-0.6486757
-0.6482025
-0.6463847
-0.6433022
-0.639032
-0.6336479
-0.6272181
-0.6198006
-0.611436
-0.6021333
-0.5918569
-0.5804523
-0.5677844
-0.5540716
-0.540115
-0.5259272
-0.514534
-0.4980684
-0.5058216
-0.4389241
-0.6118357
)
;
    }
    wall
    {
        type            zeroGradient;
    }
    frontAndBack
    {
        type            empty;
    }
    middle
    {
        type            symmetryPlane;
        value           nonuniform List<scalar> 2(-0.5368357 -0.5868357);
    }
}


// ************************************************************************* //
