/*--------------------------------*- C++ -*----------------------------------*\
| =========                 |                                                 |
| \\      /  F ield         | foam-extend: Open Source CFD                    |
|  \\    /   O peration     | Version:     4.0                                |
|   \\  /    A nd           | Web:         http://www.foam-extend.org         |
|    \\/     M anipulation  |                                                 |
\*---------------------------------------------------------------------------*/
FoamFile
{
    version     2.0;
    format      ascii;
    class       surfaceScalarField;
    location    "100";
    object      phi;
}
// * * * * * * * * * * * * * * * * * * * * * * * * * * * * * * * * * * * * * //

dimensions      [0 3 -1 0 0 0 0];

internalField   nonuniform List<scalar> 
223
(
3.175368e-05
5.770351e-12
-1.601505e-15
0.0001017402
5.573636e-12
1.578201e-14
0.0001823312
5.413442e-12
9.240265e-14
0.0002746966
5.347573e-12
2.470124e-13
0.0003800235
5.372455e-12
4.732396e-13
0.0004994778
5.467932e-12
7.52651e-13
0.0006341823
5.607787e-12
1.063501e-12
0.0007852261
5.765172e-12
1.383962e-12
0.0009537014
5.866475e-12
1.64479e-12
0.001140753
5.807689e-12
1.744172e-12
0.001346402
5.597239e-12
1.689464e-12
0.001570022
5.322573e-12
1.565331e-12
0.001811645
5.01282e-12
1.399172e-12
0.002071277
4.675077e-12
1.197312e-12
0.002348917
4.339204e-12
9.899238e-13
0.002644582
4.034168e-12
8.084378e-13
0.002958329
3.780296e-12
6.773535e-13
0.003290279
3.587892e-12
6.120398e-13
0.003640636
3.457093e-12
6.185186e-13
0.004009705
3.379346e-12
6.950813e-13
0.004397911
3.340252e-12
8.346712e-13
0.004805808
3.32164e-12
1.026812e-12
0.005234088
3.302211e-12
1.258362e-12
0.005683586
3.260611e-12
1.514364e-12
0.006155289
3.179022e-12
1.780849e-12
0.006650326
3.04369e-12
2.043877e-12
0.007169978
2.8471e-12
2.287383e-12
0.007715665
2.586647e-12
2.498327e-12
0.008288951
2.260412e-12
2.674456e-12
0.008891538
1.865543e-12
2.826337e-12
0.009525261
1.397296e-12
2.973987e-12
0.01019209
8.671356e-13
3.124697e-12
0.01089413
3.510523e-13
3.230712e-12
0.01163362
-6.073941e-14
3.241177e-12
0.01241293
-3.772338e-13
3.207195e-12
0.01323458
-6.473377e-13
3.212901e-12
0.01410123
-8.67413e-13
3.280216e-12
0.01501572
-9.584025e-13
3.352626e-12
0.01598103
-8.458542e-13
3.35862e-12
0.01700032
-6.138096e-13
3.358801e-12
0.01807694
-3.911692e-13
3.451508e-12
0.01921444
-1.282566e-13
3.553802e-12
0.02041656
2.919928e-13
3.505426e-12
0.02168725
8.728011e-13
3.259433e-12
0.0230307
1.567262e-12
2.835023e-12
0.02445128
2.175571e-12
2.416004e-12
0.02595362
2.512401e-12
2.181812e-12
0.02754252
2.76135e-12
1.957805e-12
0.029223
3.089486e-12
1.597303e-12
0.03100023
3.387487e-12
1.240157e-12
0.03287954
3.533603e-12
1.040046e-12
0.03486642
3.501056e-12
1.049405e-12
0.03696649
3.332033e-12
1.247223e-12
0.03918559
3.12106e-12
1.546223e-12
0.04152974
2.953985e-12
1.839001e-12
0.04400518
2.827333e-12
2.080035e-12
0.04661837
2.686293e-12
2.275786e-12
0.04937593
2.552301e-12
2.389603e-12
0.05228461
2.471555e-12
2.394862e-12
0.0553513
2.40514e-12
2.34938e-12
0.05858289
2.299023e-12
2.279358e-12
0.06198631
2.127613e-12
2.116178e-12
0.06556842
1.837513e-12
1.786263e-12
0.06933602
1.371923e-12
1.275143e-12
0.07329582
7.511471e-13
6.331979e-13
0.07745442
1.127849e-13
-6.635047e-15
0.08181838
-3.281148e-13
-4.335296e-13
0.08639396
-3.883377e-13
-4.791506e-13
0.09118675
-1.151782e-13
-2.537421e-13
0.09620148
9.330672e-15
-2.323805e-13
0.1014419
-6.546339e-13
-1.179746e-12
0.1069109
-1.713142e-12
-1.518503e-12
0.11261
-6.376717e-13
-5.107379e-13
0.1185389
-6.992824e-13
-4.272224e-13
0.1246943
)
;

boundaryField
{
    leftandright
    {
        type            cyclic;
        value           nonuniform List<scalar> 
150
(
-3.175368e-05
-0.0001017402
-0.0001823312
-0.0002746966
-0.0003800235
-0.0004994778
-0.0006341823
-0.0007852261
-0.0009537014
-0.001140753
-0.001346402
-0.001570022
-0.001811645
-0.002071277
-0.002348917
-0.002644582
-0.002958329
-0.003290279
-0.003640636
-0.004009705
-0.004397911
-0.004805808
-0.005234088
-0.005683586
-0.006155289
-0.006650326
-0.007169978
-0.007715665
-0.008288951
-0.008891538
-0.009525261
-0.01019209
-0.01089413
-0.01163362
-0.01241293
-0.01323458
-0.01410123
-0.01501572
-0.01598103
-0.01700032
-0.01807694
-0.01921444
-0.02041656
-0.02168725
-0.0230307
-0.02445128
-0.02595362
-0.02754252
-0.029223
-0.03100023
-0.03287954
-0.03486642
-0.03696649
-0.03918559
-0.04152974
-0.04400518
-0.04661837
-0.04937593
-0.05228461
-0.0553513
-0.05858289
-0.06198631
-0.06556842
-0.06933602
-0.07329582
-0.07745442
-0.08181838
-0.08639396
-0.09118675
-0.09620148
-0.1014419
-0.1069109
-0.11261
-0.1185389
-0.1246943
3.175368e-05
0.0001017402
0.0001823312
0.0002746966
0.0003800235
0.0004994778
0.0006341823
0.0007852261
0.0009537014
0.001140753
0.001346402
0.001570022
0.001811645
0.002071277
0.002348917
0.002644582
0.002958329
0.003290279
0.003640636
0.004009705
0.004397911
0.004805808
0.005234088
0.005683586
0.006155289
0.006650326
0.007169978
0.007715665
0.008288951
0.008891538
0.009525261
0.01019209
0.01089413
0.01163362
0.01241293
0.01323458
0.01410123
0.01501572
0.01598103
0.01700032
0.01807694
0.01921444
0.02041656
0.02168725
0.0230307
0.02445128
0.02595362
0.02754252
0.029223
0.03100023
0.03287954
0.03486642
0.03696649
0.03918559
0.04152974
0.04400518
0.04661837
0.04937593
0.05228461
0.0553513
0.05858289
0.06198631
0.06556842
0.06933602
0.07329582
0.07745442
0.08181838
0.08639396
0.09118675
0.09620148
0.1014419
0.1069109
0.11261
0.1185389
0.1246943
)
;
    }
    wall
    {
        type            calculated;
        value           uniform 0;
    }
    frontAndBack
    {
        type            empty;
    }
    middle
    {
        type            symmetryPlane;
        value           uniform 0;
    }
}


// ************************************************************************* //
