/*--------------------------------*- C++ -*----------------------------------*\
| =========                 |                                                 |
| \\      /  F ield         | foam-extend: Open Source CFD                    |
|  \\    /   O peration     | Version:     4.0                                |
|   \\  /    A nd           | Web:         http://www.foam-extend.org         |
|    \\/     M anipulation  |                                                 |
\*---------------------------------------------------------------------------*/
FoamFile
{
    version     2.0;
    format      ascii;
    class       volScalarField;
    location    "100";
    object      QR;
}
// * * * * * * * * * * * * * * * * * * * * * * * * * * * * * * * * * * * * * //

dimensions      [0 0 -1 0 0 0 0];

internalField   nonuniform List<scalar> 
150
(
409.2278
409.2279
408.5623
408.5623
407.5742
407.5742
405.9313
405.9313
403.2388
403.2388
399.1404
399.1404
393.4263
393.4263
386.0942
386.0942
377.3363
377.3362
365.9736
365.9736
350.4966
350.4966
332.036
332.036
312.2106
312.2105
291.5777
291.5777
270.6267
270.6267
249.7776
249.7776
229.3813
229.3813
209.7199
209.7199
191.0102
191.0102
173.4079
173.4079
157.0138
157.0138
141.881
141.881
128.0221
128.0221
115.417
115.417
104.0202
104.0202
93.7674
93.7674
84.58168
84.58168
76.3788
76.3788
69.07145
69.07145
62.57269
62.57269
56.79851
56.79851
51.66953
51.66953
47.11225
47.11226
43.05981
43.05981
39.45219
39.45219
36.23603
36.23603
33.36413
33.36413
30.79497
30.79497
28.49205
28.49205
26.42333
26.42333
24.56068
24.56068
22.87933
22.87933
21.35738
21.35738
19.97539
19.97539
18.71591
18.71591
17.56309
17.5631
16.50242
16.50242
15.5204
15.5204
14.60465
14.60465
13.74408
13.74408
12.92937
12.92937
12.15347
12.15347
11.41161
11.41161
10.70088
10.70088
10.01942
10.01942
9.365627
9.365627
8.737764
8.737764
8.133819
8.133819
7.551624
7.551624
6.989024
6.989024
6.444053
6.444053
5.91509
5.91509
5.400992
5.400992
4.9012
4.9012
4.415806
4.415806
3.945558
3.945558
3.490684
3.490684
3.04942
3.04942
2.619119
2.619118
2.198124
2.198124
1.785943
1.785943
1.382479
1.382479
0.9883845
0.9883845
0.6045534
0.604553
0.2083658
0.2083653
)
;

boundaryField
{
    leftandright
    {
        type            cyclic;
        value           nonuniform List<scalar> 
150
(
409.2278
408.5623
407.5742
405.9313
403.2388
399.1404
393.4263
386.0942
377.3362
365.9736
350.4966
332.036
312.2106
291.5777
270.6267
249.7776
229.3813
209.7199
191.0102
173.4079
157.0138
141.881
128.0221
115.417
104.0202
93.7674
84.58168
76.3788
69.07145
62.57269
56.79851
51.66953
47.11226
43.05981
39.45219
36.23603
33.36413
30.79497
28.49205
26.42333
24.56068
22.87933
21.35738
19.97539
18.71591
17.56309
16.50242
15.5204
14.60465
13.74408
12.92937
12.15347
11.41161
10.70088
10.01942
9.365627
8.737764
8.133819
7.551624
6.989024
6.444053
5.91509
5.400992
4.9012
4.415806
3.945558
3.490684
3.04942
2.619119
2.198124
1.785943
1.382479
0.9883845
0.6045532
0.2083655
409.2278
408.5623
407.5742
405.9313
403.2388
399.1404
393.4263
386.0942
377.3362
365.9736
350.4966
332.036
312.2106
291.5777
270.6267
249.7776
229.3813
209.7199
191.0102
173.4079
157.0138
141.881
128.0221
115.417
104.0202
93.7674
84.58168
76.3788
69.07145
62.57269
56.79851
51.66953
47.11226
43.05981
39.45219
36.23603
33.36413
30.79497
28.49205
26.42333
24.56068
22.87933
21.35738
19.97539
18.71591
17.56309
16.50242
15.5204
14.60465
13.74408
12.92937
12.15347
11.41161
10.70088
10.01942
9.365627
8.737764
8.133819
7.551624
6.989024
6.444053
5.91509
5.400992
4.9012
4.415806
3.945558
3.490684
3.04942
2.619119
2.198124
1.785943
1.382479
0.9883845
0.6045532
0.2083655
)
;
    }
    wall
    {
        type            calculated;
        value           nonuniform List<scalar> 2(409.5149 409.5149);
    }
    frontAndBack
    {
        type            empty;
    }
    middle
    {
        type            symmetryPlane;
        value           nonuniform List<scalar> 2(0.5472157 0.5472157);
    }
}


// ************************************************************************* //
