/*--------------------------------*- C++ -*----------------------------------*\
| =========                 |                                                 |
| \\      /  F ield         | foam-extend: Open Source CFD                    |
|  \\    /   O peration     | Version:     4.0                                |
|   \\  /    A nd           | Web:         http://www.foam-extend.org         |
|    \\/     M anipulation  |                                                 |
\*---------------------------------------------------------------------------*/
FoamFile
{
    version     2.0;
    format      ascii;
    class       volSymmTensorField;
    location    "100";
    object      RStress;
}
// * * * * * * * * * * * * * * * * * * * * * * * * * * * * * * * * * * * * * //

dimensions      [0 2 -2 0 0 0 0];

internalField   nonuniform List<symmTensor> 
150
(
(0.01008005 -2.618718e-06 0 7.225592e-07 0 0.0001968439)
(0.01008005 -2.618718e-06 0 7.225594e-07 0 0.0001968439)
(0.1077346 -0.00013548 0 3.516274e-05 0 0.002105035)
(0.1077346 -0.00013548 0 3.516275e-05 0 0.002105035)
(0.2840359 -0.0008634596 0 0.0002123798 0 0.006651461)
(0.2840359 -0.0008634598 0 0.0002123798 0 0.006651462)
(0.5384147 -0.00297049 0 0.0007000872 0 0.01657192)
(0.5384148 -0.00297049 0 0.0007000873 0 0.01657192)
(0.8719381 -0.007403968 0 0.001697285 0 0.03274012)
(0.8719382 -0.00740397 0 0.001697285 0 0.03274013)
(1.284344 -0.01501638 0 0.003410623 0 0.05618044)
(1.284344 -0.01501638 0 0.003410623 0 0.05618045)
(1.773502 -0.02627921 0 0.006035218 0 0.08761671)
(1.773502 -0.02627921 0 0.006035219 0 0.08761672)
(2.334854 -0.04112156 0 0.009741949 0 0.1274625)
(2.334854 -0.04112156 0 0.009741951 0 0.1274626)
(2.961558 -0.0589968 0 0.01467229 0 0.1758471)
(2.961558 -0.05899681 0 0.01467229 0 0.1758471)
(3.645319 -0.07879719 0 0.02094024 0 0.2326818)
(3.64532 -0.0787972 0 0.02094024 0 0.2326818)
(4.372249 -0.1139563 0 0.02857877 0 0.297251)
(4.372249 -0.1139564 0 0.02857877 0 0.297251)
(5.112446 -0.153011 0 0.03755431 0 0.3679406)
(5.112446 -0.153011 0 0.03755432 0 0.3679407)
(5.839625 -0.1946394 0 0.04783607 0 0.4432105)
(5.839626 -0.1946395 0 0.04783608 0 0.4432105)
(6.529424 -0.237506 0 0.05936454 0 0.5213862)
(6.529425 -0.237506 0 0.05936455 0 0.5213863)
(7.161208 -0.2804628 0 0.07205578 0 0.6007699)
(7.161208 -0.2804629 0 0.0720558 0 0.60077)
(7.719202 -0.3225418 0 0.08580522 0 0.679742)
(7.719202 -0.3225419 0 0.08580523 0 0.6797421)
(8.192961 -0.3629508 0 0.1004935 0 0.7568457)
(8.192961 -0.3629508 0 0.1004935 0 0.7568458)
(8.577265 -0.4010723 0 0.115993 0 0.8308474)
(8.577265 -0.4010724 0 0.115993 0 0.8308474)
(8.871573 -0.4364606 0 0.1321737 0 0.9007703)
(8.871574 -0.4364607 0 0.1321737 0 0.9007704)
(9.079206 -0.4688326 0 0.1489081 0 0.9659047)
(9.079207 -0.4688326 0 0.1489082 0 0.9659048)
(9.206395 -0.4980535 0 0.1660756 0 1.025796)
(9.206395 -0.4980536 0 0.1660756 0 1.025796)
(9.26133 -0.5241176 0 0.1835642 0 1.080219)
(9.26133 -0.5241176 0 0.1835642 0 1.080219)
(9.253296 -0.5471249 0 0.2012722 0 1.129141)
(9.253296 -0.547125 0 0.2012723 0 1.129141)
(9.191945 -0.5672569 0 0.2191084 0 1.172684)
(9.191945 -0.567257 0 0.2191084 0 1.172684)
(9.086733 -0.5847516 0 0.2369915 0 1.211085)
(9.086734 -0.5847517 0 0.2369916 0 1.211086)
(8.946518 -0.5998806 0 0.2548496 0 1.24466)
(8.946518 -0.5998807 0 0.2548496 0 1.24466)
(8.779303 -0.6129289 0 0.2726187 0 1.273768)
(8.779303 -0.612929 0 0.2726187 0 1.273768)
(8.592105 -0.6241784 0 0.290242 0 1.298795)
(8.592105 -0.6241785 0 0.2902421 0 1.298795)
(8.390913 -0.6338952 0 0.3076693 0 1.320126)
(8.390913 -0.6338953 0 0.3076693 0 1.320126)
(8.180719 -0.6423213 0 0.3248557 0 1.338136)
(8.180719 -0.6423213 0 0.3248558 0 1.338136)
(7.965586 -0.6496692 0 0.3417624 0 1.353177)
(7.965586 -0.6496692 0 0.3417624 0 1.353177)
(7.748744 -0.6561199 0 0.358356 0 1.365578)
(7.748744 -0.6561199 0 0.358356 0 1.365579)
(7.532697 -0.6618236 0 0.3746087 0 1.375639)
(7.532697 -0.6618236 0 0.3746087 0 1.375639)
(7.319335 -0.666899 0 0.3904955 0 1.383625)
(7.319335 -0.666899 0 0.3904955 0 1.383625)
(7.11004 -0.671436 0 0.4059922 0 1.389764)
(7.11004 -0.671436 0 0.4059922 0 1.389764)
(6.90577 -0.6754988 0 0.4210741 0 1.39425)
(6.905771 -0.6754988 0 0.4210741 0 1.39425)
(6.707142 -0.6791291 0 0.4357146 0 1.397242)
(6.707142 -0.6791291 0 0.4357146 0 1.397242)
(6.514486 -0.6823491 0 0.4498853 0 1.398864)
(6.514486 -0.6823492 0 0.4498853 0 1.398864)
(6.327906 -0.6851643 0 0.4635551 0 1.399214)
(6.327906 -0.6851643 0 0.4635551 0 1.399214)
(6.147313 -0.687565 0 0.4766902 0 1.398356)
(6.147313 -0.687565 0 0.4766902 0 1.398356)
(5.972462 -0.6895286 0 0.4892539 0 1.396329)
(5.972462 -0.6895286 0 0.4892539 0 1.396329)
(5.802978 -0.69102 0 0.5012067 0 1.393148)
(5.802978 -0.69102 0 0.5012067 0 1.393148)
(5.638373 -0.6919914 0 0.5125058 0 1.388801)
(5.638373 -0.6919914 0 0.5125058 0 1.388801)
(5.478061 -0.6923813 0 0.5231055 0 1.383255)
(5.478061 -0.6923813 0 0.5231055 0 1.383255)
(5.321375 -0.6921108 0 0.5329575 0 1.376451)
(5.321375 -0.6921109 0 0.5329575 0 1.376451)
(5.167576 -0.6910799 0 0.5420104 0 1.368315)
(5.167576 -0.69108 0 0.5420104 0 1.368315)
(5.015873 -0.6891612 0 0.550211 0 1.358751)
(5.015873 -0.6891612 0 0.550211 0 1.358751)
(4.865442 -0.6861962 0 0.5575042 0 1.347648)
(4.865442 -0.6861962 0 0.5575042 0 1.347648)
(4.715456 -0.6819991 0 0.5638353 0 1.334889)
(4.715456 -0.6819991 0 0.5638353 0 1.334889)
(4.565132 -0.6763728 0 0.569152 0 1.320354)
(4.565132 -0.6763728 0 0.569152 0 1.320354)
(4.413778 -0.6691406 0 0.5734068 0 1.303935)
(4.413778 -0.6691406 0 0.5734067 0 1.303935)
(4.260842 -0.6601841 0 0.5765588 0 1.285543)
(4.260842 -0.6601841 0 0.5765588 0 1.285543)
(4.10595 -0.6494681 0 0.5785762 0 1.265122)
(4.10595 -0.6494681 0 0.5785762 0 1.265122)
(3.948921 -0.6370365 0 0.5794376 0 1.242652)
(3.948921 -0.6370365 0 0.5794376 0 1.242652)
(3.789762 -0.6229829 0 0.5791347 0 1.21815)
(3.789762 -0.6229829 0 0.5791347 0 1.21815)
(3.628642 -0.6074128 0 0.5776733 0 1.191673)
(3.628642 -0.6074128 0 0.5776733 0 1.191673)
(3.465873 -0.5904154 0 0.5750723 0 1.163308)
(3.465873 -0.5904154 0 0.5750723 0 1.163308)
(3.301892 -0.5720518 0 0.5713618 0 1.133176)
(3.301892 -0.5720518 0 0.5713618 0 1.133176)
(3.137253 -0.5523546 0 0.5665813 0 1.101423)
(3.137253 -0.5523546 0 0.5665813 0 1.101423)
(2.972633 -0.5313326 0 0.5607764 0 1.068225)
(2.972633 -0.5313326 0 0.5607764 0 1.068225)
(2.808841 -0.5089758 0 0.553995 0 1.033782)
(2.808841 -0.5089758 0 0.553995 0 1.033782)
(2.646829 -0.4852596 0 0.5462804 0 0.9983207)
(2.646829 -0.4852596 0 0.5462804 0 0.9983207)
(2.48771 -0.4601479 0 0.5376618 0 0.9620876)
(2.48771 -0.4601479 0 0.5376617 0 0.9620876)
(2.332769 -0.4335946 0 0.5281431 0 0.9253441)
(2.332769 -0.4335946 0 0.5281431 0 0.9253441)
(2.183469 -0.4055446 0 0.5176669 0 0.8883553)
(2.183469 -0.4055445 0 0.5176669 0 0.8883553)
(2.041461 -0.3759343 0 0.5061179 0 0.8513724)
(2.041461 -0.3759342 0 0.5061179 0 0.8513724)
(1.908589 -0.3445826 0 0.4932809 0 0.8146069)
(1.908589 -0.3445826 0 0.4932809 0 0.8146069)
(1.785908 -0.3114766 0 0.4795097 0 0.7786322)
(1.785908 -0.3114765 0 0.4795097 0 0.7786322)
(1.674112 -0.2766116 0 0.4652095 0 0.7442601)
(1.674112 -0.2766116 0 0.4652095 0 0.7442601)
(1.574133 -0.2398993 0 0.4518041 0 0.7123151)
(1.574133 -0.2398993 0 0.4518041 0 0.7123151)
(1.487076 -0.2012359 0 0.437344 0 0.6836247)
(1.487076 -0.2012359 0 0.437344 0 0.6836247)
(1.414181 -0.1604982 0 0.4307871 0 0.6590073)
(1.414181 -0.1604982 0 0.4307871 0 0.6590073)
(1.3568 -0.1175527 0 0.4063761 0 0.6392656)
(1.3568 -0.1175526 0 0.4063761 0 0.6392656)
(1.316479 -0.07226615 0 0.4302208 0 0.6252077)
(1.316479 -0.07226609 0 0.4302207 0 0.6252076)
(1.29505 -0.02451463 0 0.3966334 0 0.6176745)
(1.29505 -0.02451457 0 0.3966334 0 0.6176744)
)
;

boundaryField
{
    leftandright
    {
        type            cyclic;
        value           nonuniform List<symmTensor> 
150
(
(0.01008005 -2.618718e-06 0 7.225593e-07 0 0.0001968439)
(0.1077346 -0.00013548 0 3.516275e-05 0 0.002105035)
(0.2840359 -0.0008634597 0 0.0002123798 0 0.006651462)
(0.5384148 -0.00297049 0 0.0007000872 0 0.01657192)
(0.8719381 -0.007403969 0 0.001697285 0 0.03274013)
(1.284344 -0.01501638 0 0.003410623 0 0.05618045)
(1.773502 -0.02627921 0 0.006035218 0 0.08761671)
(2.334854 -0.04112156 0 0.00974195 0 0.1274626)
(2.961558 -0.0589968 0 0.01467229 0 0.1758471)
(3.64532 -0.0787972 0 0.02094024 0 0.2326818)
(4.372249 -0.1139563 0 0.02857877 0 0.297251)
(5.112446 -0.153011 0 0.03755431 0 0.3679406)
(5.839625 -0.1946394 0 0.04783607 0 0.4432105)
(6.529425 -0.237506 0 0.05936455 0 0.5213863)
(7.161208 -0.2804628 0 0.07205579 0 0.6007699)
(7.719202 -0.3225418 0 0.08580522 0 0.679742)
(8.192961 -0.3629508 0 0.1004935 0 0.7568458)
(8.577265 -0.4010723 0 0.115993 0 0.8308474)
(8.871573 -0.4364606 0 0.1321737 0 0.9007704)
(9.079206 -0.4688326 0 0.1489082 0 0.9659048)
(9.206395 -0.4980535 0 0.1660756 0 1.025796)
(9.26133 -0.5241176 0 0.1835642 0 1.080219)
(9.253296 -0.5471249 0 0.2012722 0 1.129141)
(9.191945 -0.5672569 0 0.2191084 0 1.172684)
(9.086734 -0.5847516 0 0.2369916 0 1.211085)
(8.946518 -0.5998806 0 0.2548496 0 1.24466)
(8.779303 -0.612929 0 0.2726187 0 1.273768)
(8.592105 -0.6241784 0 0.290242 0 1.298795)
(8.390913 -0.6338952 0 0.3076693 0 1.320126)
(8.180719 -0.6423213 0 0.3248558 0 1.338136)
(7.965586 -0.6496692 0 0.3417624 0 1.353177)
(7.748744 -0.6561199 0 0.358356 0 1.365579)
(7.532697 -0.6618236 0 0.3746087 0 1.375639)
(7.319335 -0.666899 0 0.3904955 0 1.383625)
(7.11004 -0.671436 0 0.4059922 0 1.389764)
(6.905771 -0.6754988 0 0.4210741 0 1.39425)
(6.707142 -0.6791291 0 0.4357146 0 1.397242)
(6.514486 -0.6823492 0 0.4498853 0 1.398864)
(6.327906 -0.6851643 0 0.4635551 0 1.399214)
(6.147313 -0.687565 0 0.4766902 0 1.398356)
(5.972462 -0.6895286 0 0.4892539 0 1.396329)
(5.802978 -0.69102 0 0.5012067 0 1.393148)
(5.638373 -0.6919914 0 0.5125058 0 1.388801)
(5.478061 -0.6923813 0 0.5231055 0 1.383255)
(5.321375 -0.6921109 0 0.5329575 0 1.376451)
(5.167576 -0.69108 0 0.5420104 0 1.368315)
(5.015873 -0.6891612 0 0.550211 0 1.358751)
(4.865442 -0.6861962 0 0.5575042 0 1.347648)
(4.715456 -0.6819991 0 0.5638353 0 1.334889)
(4.565132 -0.6763728 0 0.569152 0 1.320354)
(4.413778 -0.6691406 0 0.5734067 0 1.303935)
(4.260842 -0.6601841 0 0.5765588 0 1.285543)
(4.10595 -0.6494681 0 0.5785762 0 1.265122)
(3.948921 -0.6370365 0 0.5794376 0 1.242652)
(3.789762 -0.6229829 0 0.5791347 0 1.21815)
(3.628642 -0.6074128 0 0.5776733 0 1.191673)
(3.465873 -0.5904154 0 0.5750723 0 1.163308)
(3.301892 -0.5720518 0 0.5713618 0 1.133176)
(3.137253 -0.5523546 0 0.5665813 0 1.101423)
(2.972633 -0.5313326 0 0.5607764 0 1.068225)
(2.808841 -0.5089758 0 0.553995 0 1.033782)
(2.646829 -0.4852596 0 0.5462804 0 0.9983207)
(2.48771 -0.4601479 0 0.5376618 0 0.9620876)
(2.332769 -0.4335946 0 0.5281431 0 0.9253441)
(2.183469 -0.4055445 0 0.5176669 0 0.8883553)
(2.041461 -0.3759342 0 0.5061179 0 0.8513724)
(1.908589 -0.3445826 0 0.4932809 0 0.8146069)
(1.785908 -0.3114765 0 0.4795097 0 0.7786322)
(1.674112 -0.2766116 0 0.4652095 0 0.7442601)
(1.574133 -0.2398993 0 0.4518041 0 0.7123151)
(1.487076 -0.2012359 0 0.437344 0 0.6836247)
(1.414181 -0.1604982 0 0.4307871 0 0.6590073)
(1.3568 -0.1175526 0 0.4063761 0 0.6392656)
(1.316479 -0.07226612 0 0.4302207 0 0.6252076)
(1.29505 -0.0245146 0 0.3966334 0 0.6176745)
(0.01008005 -2.618718e-06 0 7.225593e-07 0 0.0001968439)
(0.1077346 -0.00013548 0 3.516275e-05 0 0.002105035)
(0.2840359 -0.0008634597 0 0.0002123798 0 0.006651462)
(0.5384148 -0.00297049 0 0.0007000872 0 0.01657192)
(0.8719381 -0.007403969 0 0.001697285 0 0.03274013)
(1.284344 -0.01501638 0 0.003410623 0 0.05618045)
(1.773502 -0.02627921 0 0.006035218 0 0.08761671)
(2.334854 -0.04112156 0 0.00974195 0 0.1274626)
(2.961558 -0.0589968 0 0.01467229 0 0.1758471)
(3.64532 -0.0787972 0 0.02094024 0 0.2326818)
(4.372249 -0.1139563 0 0.02857877 0 0.297251)
(5.112446 -0.153011 0 0.03755431 0 0.3679406)
(5.839625 -0.1946394 0 0.04783607 0 0.4432105)
(6.529425 -0.237506 0 0.05936455 0 0.5213863)
(7.161208 -0.2804628 0 0.07205579 0 0.6007699)
(7.719202 -0.3225418 0 0.08580522 0 0.679742)
(8.192961 -0.3629508 0 0.1004935 0 0.7568458)
(8.577265 -0.4010723 0 0.115993 0 0.8308474)
(8.871573 -0.4364606 0 0.1321737 0 0.9007704)
(9.079206 -0.4688326 0 0.1489082 0 0.9659048)
(9.206395 -0.4980535 0 0.1660756 0 1.025796)
(9.26133 -0.5241176 0 0.1835642 0 1.080219)
(9.253296 -0.5471249 0 0.2012722 0 1.129141)
(9.191945 -0.5672569 0 0.2191084 0 1.172684)
(9.086734 -0.5847516 0 0.2369916 0 1.211085)
(8.946518 -0.5998806 0 0.2548496 0 1.24466)
(8.779303 -0.612929 0 0.2726187 0 1.273768)
(8.592105 -0.6241784 0 0.290242 0 1.298795)
(8.390913 -0.6338952 0 0.3076693 0 1.320126)
(8.180719 -0.6423213 0 0.3248558 0 1.338136)
(7.965586 -0.6496692 0 0.3417624 0 1.353177)
(7.748744 -0.6561199 0 0.358356 0 1.365579)
(7.532697 -0.6618236 0 0.3746087 0 1.375639)
(7.319335 -0.666899 0 0.3904955 0 1.383625)
(7.11004 -0.671436 0 0.4059922 0 1.389764)
(6.905771 -0.6754988 0 0.4210741 0 1.39425)
(6.707142 -0.6791291 0 0.4357146 0 1.397242)
(6.514486 -0.6823492 0 0.4498853 0 1.398864)
(6.327906 -0.6851643 0 0.4635551 0 1.399214)
(6.147313 -0.687565 0 0.4766902 0 1.398356)
(5.972462 -0.6895286 0 0.4892539 0 1.396329)
(5.802978 -0.69102 0 0.5012067 0 1.393148)
(5.638373 -0.6919914 0 0.5125058 0 1.388801)
(5.478061 -0.6923813 0 0.5231055 0 1.383255)
(5.321375 -0.6921109 0 0.5329575 0 1.376451)
(5.167576 -0.69108 0 0.5420104 0 1.368315)
(5.015873 -0.6891612 0 0.550211 0 1.358751)
(4.865442 -0.6861962 0 0.5575042 0 1.347648)
(4.715456 -0.6819991 0 0.5638353 0 1.334889)
(4.565132 -0.6763728 0 0.569152 0 1.320354)
(4.413778 -0.6691406 0 0.5734067 0 1.303935)
(4.260842 -0.6601841 0 0.5765588 0 1.285543)
(4.10595 -0.6494681 0 0.5785762 0 1.265122)
(3.948921 -0.6370365 0 0.5794376 0 1.242652)
(3.789762 -0.6229829 0 0.5791347 0 1.21815)
(3.628642 -0.6074128 0 0.5776733 0 1.191673)
(3.465873 -0.5904154 0 0.5750723 0 1.163308)
(3.301892 -0.5720518 0 0.5713618 0 1.133176)
(3.137253 -0.5523546 0 0.5665813 0 1.101423)
(2.972633 -0.5313326 0 0.5607764 0 1.068225)
(2.808841 -0.5089758 0 0.553995 0 1.033782)
(2.646829 -0.4852596 0 0.5462804 0 0.9983207)
(2.48771 -0.4601479 0 0.5376618 0 0.9620876)
(2.332769 -0.4335946 0 0.5281431 0 0.9253441)
(2.183469 -0.4055445 0 0.5176669 0 0.8883553)
(2.041461 -0.3759342 0 0.5061179 0 0.8513724)
(1.908589 -0.3445826 0 0.4932809 0 0.8146069)
(1.785908 -0.3114765 0 0.4795097 0 0.7786322)
(1.674112 -0.2766116 0 0.4652095 0 0.7442601)
(1.574133 -0.2398993 0 0.4518041 0 0.7123151)
(1.487076 -0.2012359 0 0.437344 0 0.6836247)
(1.414181 -0.1604982 0 0.4307871 0 0.6590073)
(1.3568 -0.1175526 0 0.4063761 0 0.6392656)
(1.316479 -0.07226612 0 0.4302207 0 0.6252076)
(1.29505 -0.0245146 0 0.3966334 0 0.6176745)
)
;
    }
    wall
    {
        type            calculated;
        value           nonuniform List<symmTensor> 2((3.333333e-11 -3.499638e-10 0 9.999238e-11 0 6.666667e-11) (3.333333e-11 -3.499638e-10 0 9.999238e-11 0 6.666667e-11));
    }
    frontAndBack
    {
        type            empty;
    }
    middle
    {
        type            symmetryPlane;
        value           nonuniform List<symmTensor> 2((1.29505 0 0 0.5224482 0 0.6176745) (1.29505 0 0 0.5224481 0 0.6176744));
    }
}


// ************************************************************************* //
