/*--------------------------------*- C++ -*----------------------------------*\
| =========                 |                                                 |
| \\      /  F ield         | foam-extend: Open Source CFD                    |
|  \\    /   O peration     | Version:     4.0                                |
|   \\  /    A nd           | Web:         http://www.foam-extend.org         |
|    \\/     M anipulation  |                                                 |
\*---------------------------------------------------------------------------*/
FoamFile
{
    version     2.0;
    format      ascii;
    class       volSymmTensorField;
    location    "100";
    object      tauP;
}
// * * * * * * * * * * * * * * * * * * * * * * * * * * * * * * * * * * * * * //

dimensions      [0 2 -2 0 0 0 0];

internalField   nonuniform List<symmTensor> 
150
(
(4.254581 0.06553293 0 9.90933e-06 0 3.32417e-06)
(4.254583 0.06553274 0 9.906965e-06 0 3.325941e-06)
(4.250507 0.06552334 0 1.091948e-05 0 3.276445e-06)
(4.25051 0.06552316 0 1.091728e-05 0 3.278581e-06)
(4.24245 0.06551773 0 1.355026e-05 0 3.291274e-06)
(4.242453 0.06551756 0 1.354825e-05 0 3.293357e-06)
(4.229589 0.06552257 0 1.870837e-05 0 3.341646e-06)
(4.229591 0.06552243 0 1.870661e-05 0 3.343331e-06)
(4.210635 0.06554481 0 2.779973e-05 0 3.339784e-06)
(4.210636 0.0655447 0 2.779836e-05 0 3.340979e-06)
(4.184499 0.06560302 0 4.296496e-05 0 3.230981e-06)
(4.184501 0.06560295 0 4.296412e-05 0 3.231847e-06)
(4.150884 0.06573583 0 6.715413e-05 0 3.075391e-06)
(4.150886 0.0657358 0 6.715389e-05 0 3.076178e-06)
(4.11026 0.06600258 0 0.0001041295 0 3.056291e-06)
(4.110263 0.06600259 0 0.0001041299 0 3.057172e-06)
(4.062518 0.06646743 0 0.0001586249 0 3.308278e-06)
(4.062522 0.06646746 0 0.0001586258 0 3.309293e-06)
(4.003227 0.0671425 0 0.0002367037 0 3.321553e-06)
(4.003231 0.06714256 0 0.0002367051 0 3.322661e-06)
(3.92797 0.06803053 0 0.000349015 0 2.494588e-06)
(3.927974 0.06803061 0 0.0003490169 0 2.495725e-06)
(3.83968 0.06920396 0 0.0005005559 0 1.105498e-06)
(3.839684 0.06920406 0 0.0005005583 0 1.106631e-06)
(3.746196 0.07078433 0 0.000698484 0 -6.865246e-08)
(3.7462 0.07078444 0 0.0006984872 0 -6.752254e-08)
(3.65233 0.0728388 0 0.0009509695 0 -7.963685e-07)
(3.652335 0.07283893 0 0.0009509735 0 -7.952394e-07)
(3.560533 0.07539864 0 0.001267482 0 -1.10744e-06)
(3.560536 0.07539877 0 0.001267487 0 -1.10638e-06)
(3.47164 0.07847124 0 0.00165897 0 -1.118074e-06)
(3.471643 0.07847138 0 0.001658976 0 -1.117081e-06)
(3.385449 0.0820441 0 0.002137734 0 -9.480806e-07)
(3.385452 0.08204424 0 0.002137741 0 -9.471256e-07)
(3.301106 0.08608398 0 0.002717035 0 -6.933585e-07)
(3.30111 0.08608412 0 0.002717043 0 -6.923707e-07)
(3.217379 0.09053456 0 0.003410443 0 -4.227004e-07)
(3.217383 0.09053471 0 0.003410451 0 -4.215257e-07)
(3.132876 0.09531502 0 0.004230958 0 -1.812164e-07)
(3.132881 0.09531516 0 0.004230967 0 -1.800542e-07)
(3.046248 0.1003207 0 0.005189964 0 4.860488e-09)
(3.046252 0.1003208 0 0.005189974 0 6.095921e-09)
(2.956349 0.1054264 0 0.006296087 0 1.25283e-07)
(2.956353 0.1054266 0 0.006296098 0 1.264884e-07)
(2.862373 0.1104929 0 0.007554095 0 1.821123e-07)
(2.862375 0.110493 0 0.007554107 0 1.830679e-07)
(2.763914 0.1153738 0 0.00896394 0 1.856322e-07)
(2.763916 0.1153739 0 0.008963953 0 1.86473e-07)
(2.66098 0.1199244 0 0.01052005 0 1.509255e-07)
(2.660982 0.1199245 0 0.01052006 0 1.518574e-07)
(2.553941 0.1240093 0 0.0122109 0 9.403475e-08)
(2.553943 0.1240094 0 0.01221092 0 9.49332e-08)
(2.443447 0.1275085 0 0.014019 0 2.901604e-08)
(2.443448 0.1275086 0 0.01401901 0 2.986597e-08)
(2.330323 0.1303224 0 0.01592104 0 -3.322046e-08)
(2.330324 0.1303225 0 0.01592106 0 -3.251447e-08)
(2.215476 0.1323737 0 0.01788848 0 -8.580108e-08)
(2.215477 0.1323738 0 0.0178885 0 -8.502362e-08)
(2.099805 0.1336081 0 0.01988824 0 -1.24911e-07)
(2.099806 0.1336082 0 0.01988826 0 -1.242913e-07)
(1.984141 0.1339938 0 0.0218836 0 -1.498563e-07)
(1.984142 0.1339939 0 0.02188362 0 -1.493224e-07)
(1.869206 0.1335193 0 0.02383527 0 -1.61908e-07)
(1.869207 0.1335194 0 0.02383529 0 -1.614036e-07)
(1.755596 0.1321914 0 0.0257024 0 -1.627543e-07)
(1.755597 0.1321915 0 0.02570241 0 -1.622456e-07)
(1.643777 0.1300313 0 0.02744328 0 -1.54915e-07)
(1.643778 0.1300314 0 0.02744331 0 -1.542896e-07)
(1.534089 0.1270719 0 0.02901614 0 -1.406089e-07)
(1.53409 0.127072 0 0.02901617 0 -1.403227e-07)
(1.426766 0.1233554 0 0.03037985 0 -1.224758e-07)
(1.426767 0.1233555 0 0.03037988 0 -1.221991e-07)
(1.321953 0.118931 0 0.03149484 0 -1.023236e-07)
(1.321954 0.1189311 0 0.03149487 0 -1.019179e-07)
(1.219726 0.1138535 0 0.03232391 0 -8.108225e-08)
(1.219727 0.1138536 0 0.03232394 0 -8.091548e-08)
(1.120113 0.1081818 0 0.03283314 0 -6.059224e-08)
(1.120114 0.108182 0 0.03283318 0 -6.042582e-08)
(1.023114 0.1019782 0 0.03299282 0 -4.121142e-08)
(1.023115 0.1019784 0 0.03299287 0 -4.121074e-08)
(0.9287215 0.09530817 0 0.03277856 0 -2.396232e-08)
(0.9287228 0.0953083 0 0.03277861 0 -2.384209e-08)
(0.8369438 0.08824049 0 0.03217248 0 -9.255873e-09)
(0.8369449 0.08824062 0 0.03217253 0 -9.344907e-09)
(0.7478295 0.08084861 0 0.03116472 0 2.278688e-09)
(0.7478309 0.08084878 0 0.03116479 0 2.208295e-09)
(0.6615003 0.07321286 0 0.02975565 0 9.77763e-09)
(0.6615017 0.07321304 0 0.02975572 0 9.682247e-09)
(0.5781918 0.06542441 0 0.02795878 0 1.222756e-08)
(0.5781934 0.06542459 0 0.02795886 0 1.214857e-08)
(0.4983066 0.05759088 0 0.02580504 0 8.337388e-09)
(0.4983082 0.05759106 0 0.02580512 0 8.231335e-09)
(0.4224719 0.04984333 0 0.02334817 0 -2.411692e-09)
(0.4224732 0.04984348 0 0.02334824 0 -2.757857e-09)
(0.35158 0.0423418 0 0.02067034 0 -2.00235e-08)
(0.3515815 0.04234196 0 0.02067041 0 -2.016829e-08)
(0.2867658 0.03527393 0 0.01788453 0 -4.087439e-08)
(0.286767 0.03527407 0 0.01788461 0 -4.1243e-08)
(0.2292551 0.02883825 0 0.01512842 0 -6.009362e-08)
(0.2292562 0.02883837 0 0.01512849 0 -6.050517e-08)
(0.1800661 0.02320878 0 0.01254477 0 -7.134266e-08)
(0.1800669 0.02320888 0 0.01254483 0 -7.162952e-08)
(0.1396469 0.01848995 0 0.01025135 0 -7.154983e-08)
(0.1396475 0.01849002 0 0.0102514 0 -7.187411e-08)
(0.1076585 0.01468656 0 0.008313894 0 -6.232361e-08)
(0.1076589 0.01468661 0 0.008313924 0 -6.234437e-08)
(0.08306016 0.01171014 0 0.006738409 0 -4.827953e-08)
(0.08306042 0.01171017 0 0.006738428 0 -4.84868e-08)
(0.06444257 0.009417344 0 0.005486001 0 -3.466073e-08)
(0.06444275 0.009417365 0 0.005486015 0 -3.487588e-08)
(0.0503936 0.007654961 0 0.004497658 0 -2.38187e-08)
(0.05039369 0.007654973 0 0.004497667 0 -2.387334e-08)
(0.03972197 0.00628941 0 0.003714268 0 -1.604157e-08)
(0.03972203 0.006289417 0 0.003714272 0 -1.60993e-08)
(0.03151962 0.005216805 0 0.003086346 0 -1.090895e-08)
(0.03151966 0.005216808 0 0.003086348 0 -1.096821e-08)
(0.02512966 0.004360953 0 0.002575964 0 -7.405668e-09)
(0.02512968 0.004360955 0 0.002575967 0 -7.466197e-09)
(0.02008646 0.003667281 0 0.002155159 0 -5.059086e-09)
(0.02008648 0.003667283 0 0.002155161 0 -5.115939e-09)
(0.01606047 0.003096829 0 0.001803565 0 -3.537499e-09)
(0.01606047 0.00309683 0 0.001803565 0 -3.590907e-09)
(0.01281642 0.002621607 0 0.001506331 0 -2.523578e-09)
(0.01281642 0.002621607 0 0.001506331 0 -2.571337e-09)
(0.01018431 0.002221305 0 0.001252581 0 -1.815359e-09)
(0.01018431 0.002221307 0 0.001252581 0 -1.860875e-09)
(0.0080393 0.001880999 0 0.00103426 0 -1.395002e-09)
(0.008039301 0.001880999 0 0.00103426 0 -1.447276e-09)
(0.006288697 0.001589691 0 0.0008455231 0 -1.12864e-09)
(0.006288697 0.001589691 0 0.0008455231 0 -1.193044e-09)
(0.004861241 0.001338988 0 0.0006818751 0 -1.041985e-09)
(0.004861243 0.001338988 0 0.0006818752 0 -1.275144e-09)
(0.003698509 0.001121922 0 0.0005395209 0 -1.250832e-09)
(0.00369851 0.001121922 0 0.0005395212 0 -1.243614e-09)
(0.002754122 0.0009326076 0 0.0004162213 0 -1.600898e-09)
(0.002754125 0.0009326082 0 0.0004162218 0 -1.172364e-09)
(0.001994302 0.0007665317 0 0.0003118213 0 -2.13071e-09)
(0.001994304 0.0007665326 0 0.0003118219 0 -9.377357e-10)
(0.00138008 0.0006179948 0 0.0002210836 0 -2.009065e-09)
(0.00138008 0.0006179952 0 0.000221084 0 -2.651924e-10)
(0.0009161642 0.000487459 0 0.0001545798 0 7.834327e-11)
(0.0009161608 0.0004874581 0 0.0001545782 0 1.250654e-09)
(0.0005093658 0.0003628262 0 7.668972e-05 0 3.078368e-09)
(0.0005093617 0.0003628245 0 7.668867e-05 0 5.152815e-10)
(0.0003626744 0.0002625412 0 9.128588e-05 0 2.083039e-09)
(0.0003626734 0.0002625412 0 9.128269e-05 0 -3.539889e-09)
(-3.30922e-05 0.0001452674 0 -5.091176e-05 0 -1.325095e-09)
(-3.309172e-05 0.0001452682 0 -5.09113e-05 0 2.017568e-10)
(8.655786e-05 5.171496e-05 0 4.108906e-05 0 1.313985e-09)
(8.655459e-05 5.171439e-05 0 4.1088e-05 0 -6.726431e-10)
)
;

boundaryField
{
    leftandright
    {
        type            cyclic;
        value           nonuniform List<symmTensor> 
150
(
(4.254582 0.06553284 0 9.908148e-06 0 3.325055e-06)
(4.250508 0.06552325 0 1.091838e-05 0 3.277513e-06)
(4.242451 0.06551765 0 1.354925e-05 0 3.292315e-06)
(4.22959 0.0655225 0 1.870749e-05 0 3.342489e-06)
(4.210635 0.06554476 0 2.779905e-05 0 3.340382e-06)
(4.1845 0.06560298 0 4.296454e-05 0 3.231414e-06)
(4.150885 0.06573582 0 6.715401e-05 0 3.075784e-06)
(4.110261 0.06600258 0 0.0001041297 0 3.056731e-06)
(4.06252 0.06646745 0 0.0001586253 0 3.308786e-06)
(4.003229 0.06714253 0 0.0002367044 0 3.322107e-06)
(3.927972 0.06803057 0 0.000349016 0 2.495157e-06)
(3.839682 0.06920401 0 0.0005005571 0 1.106064e-06)
(3.746198 0.07078439 0 0.0006984856 0 -6.80875e-08)
(3.652332 0.07283886 0 0.0009509715 0 -7.958039e-07)
(3.560535 0.0753987 0 0.001267485 0 -1.10691e-06)
(3.471641 0.07847131 0 0.001658973 0 -1.117577e-06)
(3.38545 0.08204417 0 0.002137738 0 -9.476031e-07)
(3.301108 0.08608405 0 0.002717039 0 -6.928646e-07)
(3.217381 0.09053464 0 0.003410447 0 -4.22113e-07)
(3.132879 0.09531509 0 0.004230963 0 -1.806353e-07)
(3.04625 0.1003207 0 0.005189969 0 5.478204e-09)
(2.956351 0.1054265 0 0.006296092 0 1.258857e-07)
(2.862374 0.110493 0 0.007554101 0 1.825901e-07)
(2.763915 0.1153738 0 0.008963946 0 1.860526e-07)
(2.660981 0.1199244 0 0.01052005 0 1.513914e-07)
(2.553942 0.1240093 0 0.01221091 0 9.448397e-08)
(2.443447 0.1275086 0 0.01401901 0 2.944101e-08)
(2.330323 0.1303225 0 0.01592105 0 -3.286747e-08)
(2.215476 0.1323737 0 0.01788849 0 -8.541235e-08)
(2.099806 0.1336082 0 0.01988825 0 -1.246012e-07)
(1.984142 0.1339938 0 0.02188361 0 -1.495894e-07)
(1.869206 0.1335194 0 0.02383528 0 -1.616558e-07)
(1.755597 0.1321914 0 0.0257024 0 -1.625e-07)
(1.643777 0.1300313 0 0.0274433 0 -1.546023e-07)
(1.53409 0.1270719 0 0.02901615 0 -1.404658e-07)
(1.426766 0.1233554 0 0.03037987 0 -1.223375e-07)
(1.321953 0.1189311 0 0.03149485 0 -1.021208e-07)
(1.219727 0.1138536 0 0.03232393 0 -8.099887e-08)
(1.120113 0.1081819 0 0.03283316 0 -6.050903e-08)
(1.023114 0.1019783 0 0.03299285 0 -4.121108e-08)
(0.9287221 0.09530823 0 0.03277859 0 -2.39022e-08)
(0.8369444 0.08824055 0 0.0321725 0 -9.30039e-09)
(0.7478302 0.08084869 0 0.03116476 0 2.243492e-09)
(0.661501 0.07321295 0 0.02975568 0 9.729939e-09)
(0.5781926 0.0654245 0 0.02795882 0 1.218806e-08)
(0.4983074 0.05759097 0 0.02580508 0 8.284362e-09)
(0.4224726 0.0498434 0 0.02334821 0 -2.584775e-09)
(0.3515807 0.04234188 0 0.02067037 0 -2.009589e-08)
(0.2867664 0.035274 0 0.01788457 0 -4.10587e-08)
(0.2292557 0.02883831 0 0.01512846 0 -6.029939e-08)
(0.1800665 0.02320883 0 0.0125448 0 -7.148609e-08)
(0.1396472 0.01848998 0 0.01025137 0 -7.171197e-08)
(0.1076587 0.01468658 0 0.008313909 0 -6.233399e-08)
(0.08306029 0.01171015 0 0.006738419 0 -4.838317e-08)
(0.06444266 0.009417355 0 0.005486008 0 -3.476831e-08)
(0.05039364 0.007654967 0 0.004497663 0 -2.384602e-08)
(0.039722 0.006289413 0 0.00371427 0 -1.607043e-08)
(0.03151964 0.005216806 0 0.003086347 0 -1.093858e-08)
(0.02512967 0.004360954 0 0.002575966 0 -7.435933e-09)
(0.02008647 0.003667282 0 0.00215516 0 -5.087512e-09)
(0.01606047 0.00309683 0 0.001803565 0 -3.564203e-09)
(0.01281642 0.002621607 0 0.001506331 0 -2.547457e-09)
(0.01018431 0.002221306 0 0.001252581 0 -1.838117e-09)
(0.008039301 0.001880999 0 0.00103426 0 -1.421139e-09)
(0.006288697 0.001589691 0 0.0008455231 0 -1.160842e-09)
(0.004861242 0.001338988 0 0.0006818751 0 -1.158565e-09)
(0.00369851 0.001121922 0 0.000539521 0 -1.247223e-09)
(0.002754123 0.0009326079 0 0.0004162215 0 -1.386631e-09)
(0.001994303 0.0007665322 0 0.0003118216 0 -1.534223e-09)
(0.00138008 0.000617995 0 0.0002210838 0 -1.137128e-09)
(0.0009161625 0.0004874585 0 0.000154579 0 6.644986e-10)
(0.0005093637 0.0003628254 0 7.66892e-05 0 1.796825e-09)
(0.0003626739 0.0002625412 0 9.128428e-05 0 -7.28425e-10)
(-3.309196e-05 0.0001452678 0 -5.091153e-05 0 -5.616693e-10)
(8.655623e-05 5.171468e-05 0 4.108853e-05 0 3.206709e-10)
(4.254582 0.06553284 0 9.908148e-06 0 3.325055e-06)
(4.250508 0.06552325 0 1.091838e-05 0 3.277513e-06)
(4.242451 0.06551765 0 1.354925e-05 0 3.292315e-06)
(4.22959 0.0655225 0 1.870749e-05 0 3.342489e-06)
(4.210635 0.06554476 0 2.779905e-05 0 3.340382e-06)
(4.1845 0.06560298 0 4.296454e-05 0 3.231414e-06)
(4.150885 0.06573582 0 6.715401e-05 0 3.075784e-06)
(4.110261 0.06600258 0 0.0001041297 0 3.056731e-06)
(4.06252 0.06646745 0 0.0001586253 0 3.308786e-06)
(4.003229 0.06714253 0 0.0002367044 0 3.322107e-06)
(3.927972 0.06803057 0 0.000349016 0 2.495157e-06)
(3.839682 0.06920401 0 0.0005005571 0 1.106064e-06)
(3.746198 0.07078439 0 0.0006984856 0 -6.80875e-08)
(3.652332 0.07283886 0 0.0009509715 0 -7.958039e-07)
(3.560535 0.0753987 0 0.001267485 0 -1.10691e-06)
(3.471641 0.07847131 0 0.001658973 0 -1.117577e-06)
(3.38545 0.08204417 0 0.002137738 0 -9.476031e-07)
(3.301108 0.08608405 0 0.002717039 0 -6.928646e-07)
(3.217381 0.09053464 0 0.003410447 0 -4.22113e-07)
(3.132879 0.09531509 0 0.004230963 0 -1.806353e-07)
(3.04625 0.1003207 0 0.005189969 0 5.478204e-09)
(2.956351 0.1054265 0 0.006296092 0 1.258857e-07)
(2.862374 0.110493 0 0.007554101 0 1.825901e-07)
(2.763915 0.1153738 0 0.008963946 0 1.860526e-07)
(2.660981 0.1199244 0 0.01052005 0 1.513914e-07)
(2.553942 0.1240093 0 0.01221091 0 9.448397e-08)
(2.443447 0.1275086 0 0.01401901 0 2.944101e-08)
(2.330323 0.1303225 0 0.01592105 0 -3.286747e-08)
(2.215476 0.1323737 0 0.01788849 0 -8.541235e-08)
(2.099806 0.1336082 0 0.01988825 0 -1.246012e-07)
(1.984142 0.1339938 0 0.02188361 0 -1.495894e-07)
(1.869206 0.1335194 0 0.02383528 0 -1.616558e-07)
(1.755597 0.1321914 0 0.0257024 0 -1.625e-07)
(1.643777 0.1300313 0 0.0274433 0 -1.546023e-07)
(1.53409 0.1270719 0 0.02901615 0 -1.404658e-07)
(1.426766 0.1233554 0 0.03037987 0 -1.223375e-07)
(1.321953 0.1189311 0 0.03149485 0 -1.021208e-07)
(1.219727 0.1138536 0 0.03232393 0 -8.099887e-08)
(1.120113 0.1081819 0 0.03283316 0 -6.050903e-08)
(1.023114 0.1019783 0 0.03299285 0 -4.121108e-08)
(0.9287221 0.09530823 0 0.03277859 0 -2.39022e-08)
(0.8369444 0.08824055 0 0.0321725 0 -9.30039e-09)
(0.7478302 0.08084869 0 0.03116476 0 2.243492e-09)
(0.661501 0.07321295 0 0.02975568 0 9.729939e-09)
(0.5781926 0.0654245 0 0.02795882 0 1.218806e-08)
(0.4983074 0.05759097 0 0.02580508 0 8.284362e-09)
(0.4224726 0.0498434 0 0.02334821 0 -2.584775e-09)
(0.3515807 0.04234188 0 0.02067037 0 -2.009589e-08)
(0.2867664 0.035274 0 0.01788457 0 -4.10587e-08)
(0.2292557 0.02883831 0 0.01512846 0 -6.029939e-08)
(0.1800665 0.02320883 0 0.0125448 0 -7.148609e-08)
(0.1396472 0.01848998 0 0.01025137 0 -7.171197e-08)
(0.1076587 0.01468658 0 0.008313909 0 -6.233399e-08)
(0.08306029 0.01171015 0 0.006738419 0 -4.838317e-08)
(0.06444266 0.009417355 0 0.005486008 0 -3.476831e-08)
(0.05039364 0.007654967 0 0.004497663 0 -2.384602e-08)
(0.039722 0.006289413 0 0.00371427 0 -1.607043e-08)
(0.03151964 0.005216806 0 0.003086347 0 -1.093858e-08)
(0.02512967 0.004360954 0 0.002575966 0 -7.435933e-09)
(0.02008647 0.003667282 0 0.00215516 0 -5.087512e-09)
(0.01606047 0.00309683 0 0.001803565 0 -3.564203e-09)
(0.01281642 0.002621607 0 0.001506331 0 -2.547457e-09)
(0.01018431 0.002221306 0 0.001252581 0 -1.838117e-09)
(0.008039301 0.001880999 0 0.00103426 0 -1.421139e-09)
(0.006288697 0.001589691 0 0.0008455231 0 -1.160842e-09)
(0.004861242 0.001338988 0 0.0006818751 0 -1.158565e-09)
(0.00369851 0.001121922 0 0.000539521 0 -1.247223e-09)
(0.002754123 0.0009326079 0 0.0004162215 0 -1.386631e-09)
(0.001994303 0.0007665322 0 0.0003118216 0 -1.534223e-09)
(0.00138008 0.000617995 0 0.0002210838 0 -1.137128e-09)
(0.0009161625 0.0004874585 0 0.000154579 0 6.644986e-10)
(0.0005093637 0.0003628254 0 7.66892e-05 0 1.796825e-09)
(0.0003626739 0.0002625412 0 9.128428e-05 0 -7.28425e-10)
(-3.309196e-05 0.0001452678 0 -5.091153e-05 0 -5.616693e-10)
(8.655623e-05 5.171468e-05 0 4.108853e-05 0 3.206709e-10)
)
;
    }
    wall
    {
        type            calculated;
        value           nonuniform List<symmTensor> 2((4.254581 0.06553293 0 9.90933e-06 0 3.32417e-06) (4.254583 0.06553274 0 9.906965e-06 0 3.325941e-06));
    }
    frontAndBack
    {
        type            empty;
    }
    middle
    {
        type            symmetryPlane;
        value           nonuniform List<symmTensor> 2((8.655786e-05 0 0 4.108906e-05 0 1.313985e-09) (8.655459e-05 0 0 4.1088e-05 0 -6.726431e-10));
    }
}


// ************************************************************************* //
