/*--------------------------------*- C++ -*----------------------------------*\
| =========                 |                                                 |
| \\      /  F ield         | foam-extend: Open Source CFD                    |
|  \\    /   O peration     | Version:     4.0                                |
|   \\  /    A nd           | Web:         http://www.foam-extend.org         |
|    \\/     M anipulation  |                                                 |
\*---------------------------------------------------------------------------*/
FoamFile
{
    version     2.0;
    format      ascii;
    class       volScalarField;
    location    "100";
    object      trC;
}
// * * * * * * * * * * * * * * * * * * * * * * * * * * * * * * * * * * * * * //

dimensions      [0 0 0 0 0 0 0];

internalField   nonuniform List<scalar> 
150
(
1339.023
1339.023
1338.219
1338.219
1336.627
1336.627
1334.081
1334.081
1330.319
1330.319
1325.112
1325.112
1318.379
1318.38
1310.192
1310.193
1300.497
1300.498
1288.344
1288.344
1272.734
1272.735
1254.154
1254.155
1234.164
1234.165
1213.758
1213.759
1193.474
1193.474
1173.519
1173.52
1153.876
1153.877
1134.369
1134.37
1114.723
1114.724
1094.605
1094.606
1073.668
1073.669
1051.595
1051.596
1028.131
1028.132
1003.104
1003.104
976.4346
976.4351
948.1345
948.1349
918.2904
918.2908
887.0466
887.047
854.5838
854.5842
821.0988
821.0993
786.7877
786.788
751.8333
751.8336
716.3977
716.3981
680.6171
680.6175
644.5997
644.6001
608.4275
608.428
572.1597
572.1601
535.8358
535.8361
499.4814
499.4818
463.1147
463.1152
426.7531
426.7536
390.423
390.4234
354.1717
354.1723
318.0838
318.0844
282.3038
282.3045
247.0667
247.0674
212.7339
212.7345
179.8248
179.8255
149.0172
149.0178
121.0799
121.0804
96.71643
96.71684
76.35804
76.35834
60.01843
60.01863
47.30843
47.30857
37.59848
37.59857
30.21477
30.21483
24.5695
24.56953
20.20555
20.20557
16.78796
16.78797
14.07712
14.07713
11.90232
11.90233
10.14107
10.14107
8.704514
8.704515
7.527212
7.527213
6.560545
6.560545
5.767068
5.767069
5.115965
5.115966
4.583124
4.583126
4.15171
4.151712
3.799721
3.799723
3.534837
3.534835
3.292756
3.292752
3.226774
3.226769
3
3
3.063769
3.063765
)
;

boundaryField
{
    leftandright
    {
        type            cyclic;
        value           nonuniform List<scalar> 
150
(
1339.023
1338.219
1336.627
1334.081
1330.319
1325.112
1318.38
1310.192
1300.497
1288.344
1272.734
1254.155
1234.164
1213.758
1193.474
1173.52
1153.876
1134.37
1114.724
1094.605
1073.668
1051.596
1028.131
1003.104
976.4348
948.1347
918.2906
887.0468
854.584
821.0991
786.7878
751.8334
716.3979
680.6173
644.5999
608.4277
572.1599
535.8359
499.4816
463.1149
426.7533
390.4232
354.172
318.0841
282.3042
247.067
212.7342
179.8251
149.0175
121.0802
96.71663
76.35819
60.01853
47.3085
37.59852
30.2148
24.56952
20.20556
16.78796
14.07713
11.90232
10.14107
8.704515
7.527212
6.560545
5.767068
5.115965
4.583125
4.151711
3.799722
3.534836
3.292754
3.226771
3
3.063767
1339.023
1338.219
1336.627
1334.081
1330.319
1325.112
1318.38
1310.192
1300.497
1288.344
1272.734
1254.155
1234.164
1213.758
1193.474
1173.52
1153.876
1134.37
1114.724
1094.605
1073.668
1051.596
1028.131
1003.104
976.4348
948.1347
918.2906
887.0468
854.584
821.0991
786.7878
751.8334
716.3979
680.6173
644.5999
608.4277
572.1599
535.8359
499.4816
463.1149
426.7533
390.4232
354.172
318.0841
282.3042
247.067
212.7342
179.8251
149.0175
121.0802
96.71663
76.35819
60.01853
47.3085
37.59852
30.2148
24.56952
20.20556
16.78796
14.07713
11.90232
10.14107
8.704515
7.527212
6.560545
5.767068
5.115965
4.583125
4.151711
3.799722
3.534836
3.292754
3.226771
3
3.063767
)
;
    }
    wall
    {
        type            calculated;
        value           nonuniform List<scalar> 2(1339.023 1339.023);
    }
    frontAndBack
    {
        type            empty;
    }
    middle
    {
        type            symmetryPlane;
        value           nonuniform List<scalar> 2(3.063769 3.063765);
    }
}


// ************************************************************************* //
