/*--------------------------------*- C++ -*----------------------------------*\
| =========                 |                                                 |
| \\      /  F ield         | foam-extend: Open Source CFD                    |
|  \\    /   O peration     | Version:     4.0                                |
|   \\  /    A nd           | Web:         http://www.foam-extend.org         |
|    \\/     M anipulation  |                                                 |
\*---------------------------------------------------------------------------*/
FoamFile
{
    version     2.0;
    format      ascii;
    class       volVectorField;
    location    "100";
    object      U;
}
// * * * * * * * * * * * * * * * * * * * * * * * * * * * * * * * * * * * * * //

dimensions      [0 1 -1 0 0 0 0];

internalField   nonuniform List<vector> 
150
(
(0.2549863 2.777528e-06 0)
(0.2549863 2.777011e-06 0)
(0.7772589 7.233864e-06 0)
(0.777259 7.232749e-06 0)
(1.32521 9.021385e-06 0)
(1.32521 9.020399e-06 0)
(1.899449 9.570689e-06 0)
(1.899449 9.569827e-06 0)
(2.499974 8.850933e-06 0)
(2.499974 8.850129e-06 0)
(3.12602 7.066035e-06 0)
(3.12602 7.065253e-06 0)
(3.776071 4.697249e-06 0)
(3.776071 4.696474e-06 0)
(4.448067 2.041455e-06 0)
(4.448067 2.040684e-06 0)
(5.139721 -2.451799e-06 0)
(5.139721 -2.452566e-06 0)
(5.848835 -7.892711e-06 0)
(5.848835 -7.893468e-06 0)
(6.567545 -1.014117e-05 0)
(6.567545 -1.014191e-05 0)
(7.285923 -1.053532e-05 0)
(7.285923 -1.053603e-05 0)
(7.998387 -1.135878e-05 0)
(7.998387 -1.135946e-05 0)
(8.699974 -1.172158e-05 0)
(8.699974 -1.172224e-05 0)
(9.386376 -1.141466e-05 0)
(9.386376 -1.141531e-05 0)
(10.05398 -1.050559e-05 0)
(10.05398 -1.050621e-05 0)
(10.69986 -9.148993e-06 0)
(10.69986 -9.149604e-06 0)
(11.32178 -7.512866e-06 0)
(11.32178 -7.513446e-06 0)
(11.91818 -5.75889e-06 0)
(11.91818 -5.75944e-06 0)
(12.48808 -4.025043e-06 0)
(12.48808 -4.025587e-06 0)
(13.03107 -2.415111e-06 0)
(13.03107 -2.415608e-06 0)
(13.54723 -9.965589e-07 0)
(13.54723 -9.970267e-07 0)
(14.03704 1.955795e-07 0)
(14.03704 1.951492e-07 0)
(14.50133 1.152436e-06 0)
(14.50133 1.152076e-06 0)
(14.94116 1.884196e-06 0)
(14.94116 1.883886e-06 0)
(15.35781 2.413344e-06 0)
(15.35781 2.413109e-06 0)
(15.75269 2.769291e-06 0)
(15.75269 2.769175e-06 0)
(16.12727 2.98423e-06 0)
(16.12727 2.984204e-06 0)
(16.48305 3.09071e-06 0)
(16.48305 3.090775e-06 0)
(16.82152 3.119557e-06 0)
(16.82152 3.119719e-06 0)
(17.14415 3.088093e-06 0)
(17.14415 3.08829e-06 0)
(17.45231 2.973532e-06 0)
(17.45231 2.973795e-06 0)
(17.74732 2.775982e-06 0)
(17.74732 2.776684e-06 0)
(18.0304 2.538266e-06 0)
(18.0304 2.539054e-06 0)
(18.30271 2.286499e-06 0)
(18.30271 2.287059e-06 0)
(18.56529 2.034532e-06 0)
(18.56529 2.035192e-06 0)
(18.81912 1.790883e-06 0)
(18.81912 1.791562e-06 0)
(19.06509 1.559593e-06 0)
(19.06509 1.560559e-06 0)
(19.30403 1.341828e-06 0)
(19.30403 1.342813e-06 0)
(19.53669 1.138055e-06 0)
(19.53669 1.138716e-06 0)
(19.76375 9.463621e-07 0)
(19.76375 9.469607e-07 0)
(19.98585 7.618199e-07 0)
(19.98585 7.626986e-07 0)
(20.20356 5.766453e-07 0)
(20.20356 5.77425e-07 0)
(20.41741 3.810319e-07 0)
(20.41741 3.816231e-07 0)
(20.62783 1.645569e-07 0)
(20.62783 1.650923e-07 0)
(20.83525 -7.444871e-08 0)
(20.83525 -7.450175e-08 0)
(21.03999 -3.066805e-07 0)
(21.03999 -3.067887e-07 0)
(21.24232 -4.46871e-07 0)
(21.24232 -4.467827e-07 0)
(21.44241 -3.551259e-07 0)
(21.44241 -3.553125e-07 0)
(21.64035 9.405431e-08 0)
(21.64035 9.362807e-08 0)
(21.83613 8.833825e-07 0)
(21.83613 8.828768e-07 0)
(22.02966 1.789081e-06 0)
(22.02966 1.788549e-06 0)
(22.22077 2.499736e-06 0)
(22.22077 2.499261e-06 0)
(22.40928 2.833308e-06 0)
(22.40928 2.832949e-06 0)
(22.59494 2.825997e-06 0)
(22.59494 2.825754e-06 0)
(22.77752 2.630804e-06 0)
(22.77752 2.630614e-06 0)
(22.95674 2.379246e-06 0)
(22.95674 2.37912e-06 0)
(23.1323 2.130317e-06 0)
(23.1323 2.130284e-06 0)
(23.30387 1.890291e-06 0)
(23.30387 1.890278e-06 0)
(23.47105 1.643804e-06 0)
(23.47105 1.64377e-06 0)
(23.63339 1.368319e-06 0)
(23.63339 1.3683e-06 0)
(23.79039 1.050641e-06 0)
(23.79039 1.050635e-06 0)
(23.94148 6.42058e-07 0)
(23.94148 6.420463e-07 0)
(24.08606 2.344481e-07 0)
(24.08606 2.344268e-07 0)
(24.22348 -1.102695e-06 0)
(24.22348 -1.102719e-06 0)
(24.35309 8.652933e-07 0)
(24.35309 8.652696e-07 0)
(24.47425 3.812783e-06 0)
(24.47425 3.812762e-06 0)
(24.58626 7.636766e-06 0)
(24.58626 7.636745e-06 0)
(24.68831 -8.265602e-06 0)
(24.68831 -8.265623e-06 0)
(24.77946 4.459005e-05 0)
(24.77946 4.459e-05 0)
(24.85869 -0.0001429218 0)
(24.85869 -0.0001429219 0)
(24.92489 0.0004807876 0)
(24.92489 0.0004807876 0)
(24.97691 -0.001589121 0)
(24.97691 -0.001589121 0)
(25.01343 0.004973038 0)
(25.01343 0.004973038 0)
(25.03279 -0.009637197 0)
(25.03279 -0.009637197 0)
)
;

boundaryField
{
    leftandright
    {
        type            cyclic;
        value           nonuniform List<vector> 
150
(
(0.2549863 2.777269e-06 0)
(0.777259 7.233307e-06 0)
(1.32521 9.020892e-06 0)
(1.899449 9.570258e-06 0)
(2.499974 8.850531e-06 0)
(3.12602 7.065644e-06 0)
(3.776071 4.696862e-06 0)
(4.448067 2.041069e-06 0)
(5.139721 -2.452183e-06 0)
(5.848835 -7.89309e-06 0)
(6.567545 -1.014154e-05 0)
(7.285923 -1.053567e-05 0)
(7.998387 -1.135912e-05 0)
(8.699974 -1.172191e-05 0)
(9.386376 -1.141498e-05 0)
(10.05398 -1.05059e-05 0)
(10.69986 -9.149299e-06 0)
(11.32178 -7.513156e-06 0)
(11.91818 -5.759165e-06 0)
(12.48808 -4.025315e-06 0)
(13.03107 -2.415359e-06 0)
(13.54723 -9.967928e-07 0)
(14.03704 1.953643e-07 0)
(14.50133 1.152256e-06 0)
(14.94116 1.884041e-06 0)
(15.35781 2.413226e-06 0)
(15.75269 2.769233e-06 0)
(16.12727 2.984217e-06 0)
(16.48305 3.090742e-06 0)
(16.82152 3.119638e-06 0)
(17.14415 3.088192e-06 0)
(17.45231 2.973664e-06 0)
(17.74732 2.776333e-06 0)
(18.0304 2.53866e-06 0)
(18.30271 2.286779e-06 0)
(18.56529 2.034862e-06 0)
(18.81912 1.791222e-06 0)
(19.06509 1.560076e-06 0)
(19.30403 1.34232e-06 0)
(19.53669 1.138386e-06 0)
(19.76375 9.466614e-07 0)
(19.98585 7.622592e-07 0)
(20.20356 5.770351e-07 0)
(20.41741 3.813275e-07 0)
(20.62783 1.648246e-07 0)
(20.83525 -7.447523e-08 0)
(21.03999 -3.067346e-07 0)
(21.24232 -4.468268e-07 0)
(21.44241 -3.552192e-07 0)
(21.64035 9.384119e-08 0)
(21.83613 8.831296e-07 0)
(22.02966 1.788815e-06 0)
(22.22077 2.499498e-06 0)
(22.40928 2.833128e-06 0)
(22.59494 2.825875e-06 0)
(22.77752 2.630709e-06 0)
(22.95674 2.379183e-06 0)
(23.1323 2.130301e-06 0)
(23.30387 1.890284e-06 0)
(23.47105 1.643787e-06 0)
(23.63339 1.36831e-06 0)
(23.79039 1.050638e-06 0)
(23.94148 6.420522e-07 0)
(24.08606 2.344375e-07 0)
(24.22348 -1.102707e-06 0)
(24.35309 8.652814e-07 0)
(24.47425 3.812773e-06 0)
(24.58626 7.636756e-06 0)
(24.68831 -8.265613e-06 0)
(24.77946 4.459003e-05 0)
(24.85869 -0.0001429218 0)
(24.92489 0.0004807876 0)
(24.97691 -0.001589121 0)
(25.01343 0.004973038 0)
(25.03279 -0.009637197 0)
(0.2549863 2.777269e-06 0)
(0.777259 7.233307e-06 0)
(1.32521 9.020892e-06 0)
(1.899449 9.570258e-06 0)
(2.499974 8.850531e-06 0)
(3.12602 7.065644e-06 0)
(3.776071 4.696862e-06 0)
(4.448067 2.041069e-06 0)
(5.139721 -2.452183e-06 0)
(5.848835 -7.89309e-06 0)
(6.567545 -1.014154e-05 0)
(7.285923 -1.053567e-05 0)
(7.998387 -1.135912e-05 0)
(8.699974 -1.172191e-05 0)
(9.386376 -1.141498e-05 0)
(10.05398 -1.05059e-05 0)
(10.69986 -9.149299e-06 0)
(11.32178 -7.513156e-06 0)
(11.91818 -5.759165e-06 0)
(12.48808 -4.025315e-06 0)
(13.03107 -2.415359e-06 0)
(13.54723 -9.967928e-07 0)
(14.03704 1.953643e-07 0)
(14.50133 1.152256e-06 0)
(14.94116 1.884041e-06 0)
(15.35781 2.413226e-06 0)
(15.75269 2.769233e-06 0)
(16.12727 2.984217e-06 0)
(16.48305 3.090742e-06 0)
(16.82152 3.119638e-06 0)
(17.14415 3.088192e-06 0)
(17.45231 2.973664e-06 0)
(17.74732 2.776333e-06 0)
(18.0304 2.53866e-06 0)
(18.30271 2.286779e-06 0)
(18.56529 2.034862e-06 0)
(18.81912 1.791222e-06 0)
(19.06509 1.560076e-06 0)
(19.30403 1.34232e-06 0)
(19.53669 1.138386e-06 0)
(19.76375 9.466614e-07 0)
(19.98585 7.622592e-07 0)
(20.20356 5.770351e-07 0)
(20.41741 3.813275e-07 0)
(20.62783 1.648246e-07 0)
(20.83525 -7.447523e-08 0)
(21.03999 -3.067346e-07 0)
(21.24232 -4.468268e-07 0)
(21.44241 -3.552192e-07 0)
(21.64035 9.384119e-08 0)
(21.83613 8.831296e-07 0)
(22.02966 1.788815e-06 0)
(22.22077 2.499498e-06 0)
(22.40928 2.833128e-06 0)
(22.59494 2.825875e-06 0)
(22.77752 2.630709e-06 0)
(22.95674 2.379183e-06 0)
(23.1323 2.130301e-06 0)
(23.30387 1.890284e-06 0)
(23.47105 1.643787e-06 0)
(23.63339 1.36831e-06 0)
(23.79039 1.050638e-06 0)
(23.94148 6.420522e-07 0)
(24.08606 2.344375e-07 0)
(24.22348 -1.102707e-06 0)
(24.35309 8.652814e-07 0)
(24.47425 3.812773e-06 0)
(24.58626 7.636756e-06 0)
(24.68831 -8.265613e-06 0)
(24.77946 4.459003e-05 0)
(24.85869 -0.0001429218 0)
(24.92489 0.0004807876 0)
(24.97691 -0.001589121 0)
(25.01343 0.004973038 0)
(25.03279 -0.009637197 0)
)
;
    }
    wall
    {
        type            fixedValue;
        value           uniform (0 0 0);
    }
    frontAndBack
    {
        type            empty;
    }
    middle
    {
        type            symmetryPlane;
        value           nonuniform List<vector> 2((25.03279 0 0) (25.03279 0 0));
    }
}


// ************************************************************************* //
