/*--------------------------------*- C++ -*----------------------------------*\
| =========                 |                                                 |
| \\      /  F ield         | foam-extend: Open Source CFD                    |
|  \\    /   O peration     | Version:     4.0                                |
|   \\  /    A nd           | Web:         http://www.foam-extend.org         |
|    \\/     M anipulation  |                                                 |
\*---------------------------------------------------------------------------*/
FoamFile
{
    version     2.0;
    format      ascii;
    class       volScalarField;
    location    "100";
    object      v2;
}
// * * * * * * * * * * * * * * * * * * * * * * * * * * * * * * * * * * * * * //

dimensions      [0 2 -2 0 0 0 0];

internalField   nonuniform List<scalar> 
150
(
7.226101e-07
7.226103e-07
3.516434e-05
3.516435e-05
0.0002123834
0.0002123834
0.0007000865
0.0007000866
0.001697255
0.001697255
0.003410525
0.003410526
0.006035018
0.006035019
0.009741521
0.009741523
0.01467146
0.01467146
0.02093938
0.02093939
0.02857834
0.02857835
0.03755405
0.03755406
0.04783574
0.04783575
0.05936452
0.05936453
0.07205628
0.07205629
0.08580632
0.08580634
0.1004952
0.1004952
0.1159952
0.1159953
0.1321763
0.1321763
0.148911
0.148911
0.1660785
0.1660785
0.183567
0.183567
0.2012747
0.2012747
0.2191105
0.2191106
0.2369933
0.2369933
0.2548509
0.2548509
0.2726196
0.2726196
0.2902426
0.2902426
0.3076695
0.3076696
0.3248557
0.3248558
0.3417621
0.3417621
0.3583553
0.3583553
0.3746077
0.3746077
0.3904943
0.3904943
0.405991
0.405991
0.4210728
0.4210728
0.4357133
0.4357133
0.449884
0.449884
0.4635538
0.4635538
0.476689
0.476689
0.4892528
0.4892528
0.5012055
0.5012055
0.5125045
0.5125045
0.5231042
0.5231042
0.532956
0.5329559
0.5420088
0.5420088
0.5502097
0.5502097
0.557504
0.557504
0.5638371
0.5638371
0.5691562
0.5691562
0.5734126
0.5734126
0.5765644
0.5765644
0.5785798
0.5785798
0.5794387
0.5794387
0.579134
0.579134
0.5776718
0.5776718
0.5750706
0.5750706
0.5713602
0.5713602
0.5665797
0.5665797
0.5607747
0.5607747
0.5539931
0.5539931
0.5462782
0.5462781
0.5376592
0.5376592
0.5281378
0.5281378
0.5176686
0.5176686
0.5061326
0.5061326
0.4933008
0.4933008
0.479476
0.479476
0.4653103
0.4653103
0.4514424
0.4514424
0.4384926
0.4384926
0.427054
0.427054
0.4176851
0.4176851
0.4109157
0.4109157
0.4072558
0.4072558
)
;

boundaryField
{
    leftandright
    {
        type            cyclic;
        value           nonuniform List<scalar> 
150
(
7.226102e-07
3.516434e-05
0.0002123834
0.0007000865
0.001697255
0.003410526
0.006035019
0.009741522
0.01467146
0.02093938
0.02857834
0.03755405
0.04783574
0.05936452
0.07205629
0.08580633
0.1004952
0.1159953
0.1321763
0.148911
0.1660785
0.183567
0.2012747
0.2191106
0.2369933
0.2548509
0.2726196
0.2902426
0.3076695
0.3248558
0.3417621
0.3583553
0.3746077
0.3904943
0.405991
0.4210728
0.4357133
0.449884
0.4635538
0.476689
0.4892528
0.5012055
0.5125045
0.5231042
0.532956
0.5420088
0.5502097
0.557504
0.5638371
0.5691562
0.5734126
0.5765644
0.5785798
0.5794387
0.579134
0.5776718
0.5750706
0.5713602
0.5665797
0.5607747
0.5539931
0.5462782
0.5376592
0.5281378
0.5176686
0.5061326
0.4933008
0.479476
0.4653103
0.4514424
0.4384926
0.427054
0.4176851
0.4109157
0.4072558
7.226102e-07
3.516434e-05
0.0002123834
0.0007000865
0.001697255
0.003410526
0.006035019
0.009741522
0.01467146
0.02093938
0.02857834
0.03755405
0.04783574
0.05936452
0.07205629
0.08580633
0.1004952
0.1159953
0.1321763
0.148911
0.1660785
0.183567
0.2012747
0.2191106
0.2369933
0.2548509
0.2726196
0.2902426
0.3076695
0.3248558
0.3417621
0.3583553
0.3746077
0.3904943
0.405991
0.4210728
0.4357133
0.449884
0.4635538
0.476689
0.4892528
0.5012055
0.5125045
0.5231042
0.532956
0.5420088
0.5502097
0.557504
0.5638371
0.5691562
0.5734126
0.5765644
0.5785798
0.5794387
0.579134
0.5776718
0.5750706
0.5713602
0.5665797
0.5607747
0.5539931
0.5462782
0.5376592
0.5281378
0.5176686
0.5061326
0.4933008
0.479476
0.4653103
0.4514424
0.4384926
0.427054
0.4176851
0.4109157
0.4072558
)
;
    }
    wall
    {
        type            fixedValue;
        value           uniform 1e-10;
    }
    frontAndBack
    {
        type            empty;
    }
    middle
    {
        type            symmetryPlane;
        value           nonuniform List<scalar> 2(0.4072558 0.4072558);
    }
}


// ************************************************************************* //
