/*--------------------------------*- C++ -*----------------------------------*\
| =========                 |                                                 |
| \\      /  F ield         | foam-extend: Open Source CFD                    |
|  \\    /   O peration     | Version:     4.0                                |
|   \\  /    A nd           | Web:         http://www.foam-extend.org         |
|    \\/     M anipulation  |                                                 |
\*---------------------------------------------------------------------------*/
FoamFile
{
    version     2.0;
    format      ascii;
    class       volSymmTensorField;
    location    "10000";
    object      C;
}
// * * * * * * * * * * * * * * * * * * * * * * * * * * * * * * * * * * * * * //

dimensions      [0 0 0 0 0 0 0];

internalField   nonuniform List<symmTensor> 
150
(
(335.2388 10.27828 0 0.6299005 0 0.6289994)
(335.2388 10.27828 0 0.6299005 0 0.6289994)
(334.9457 10.27823 0 0.6304415 0 0.6293168)
(334.9458 10.27823 0 0.6304415 0 0.6293168)
(334.3616 10.28032 0 0.6317631 0 0.6299978)
(334.3616 10.28032 0 0.6317631 0 0.6299978)
(333.3978 10.28557 0 0.6343326 0 0.6311127)
(333.3978 10.28557 0 0.6343326 0 0.6311127)
(331.9294 10.29566 0 0.6388994 0 0.6327488)
(331.9294 10.29566 0 0.6388994 0 0.6327488)
(329.8664 10.315 0 0.6465154 0 0.6349837)
(329.8664 10.315 0 0.6465154 0 0.6349837)
(327.2041 10.35171 0 0.6584629 0 0.6378647)
(327.2041 10.35171 0 0.6584629 0 0.6378647)
(323.9955 10.41707 0 0.6762479 0 0.6414275)
(323.9955 10.41707 0 0.6762479 0 0.6414275)
(320.1504 10.521 0 0.7019057 0 0.6457675)
(320.1504 10.521 0 0.7019057 0 0.6457675)
(315.3037 10.66605 0 0.7389195 0 0.651058)
(315.3037 10.66605 0 0.7389195 0 0.651058)
(309.3267 10.85474 0 0.7916917 0 0.6573553)
(309.3267 10.85474 0 0.7916917 0 0.6573553)
(302.4976 11.09241 0 0.8610005 0 0.6644694)
(302.4976 11.09241 0 0.8610005 0 0.6644694)
(295.3883 11.38476 0 0.9481443 0 0.6720194)
(295.3883 11.38476 0 0.9481444 0 0.6720194)
(288.2712 11.72793 0 1.054798 0 0.6797011)
(288.2712 11.72793 0 1.054798 0 0.6797011)
(281.264 12.11446 0 1.182887 0 0.6873298)
(281.2641 12.11447 0 1.182887 0 0.6873298)
(274.4063 12.53525 0 1.334441 0 0.6948158)
(274.4063 12.53526 0 1.334441 0 0.6948158)
(267.6952 12.97985 0 1.511406 0 0.7021329)
(267.6952 12.97985 0 1.511406 0 0.7021329)
(261.1029 13.43646 0 1.715437 0 0.709295)
(261.1029 13.43646 0 1.715437 0 0.7092949)
(254.5869 13.89219 0 1.947699 0 0.7163392)
(254.5869 13.89219 0 1.947699 0 0.7163392)
(248.0983 14.33339 0 2.208677 0 0.723315)
(248.0983 14.33339 0 2.208677 0 0.723315)
(241.5883 14.74628 0 2.498019 0 0.7302753)
(241.5883 14.74628 0 2.498019 0 0.7302753)
(235.0128 15.11755 0 2.814417 0 0.7372706)
(235.0128 15.11755 0 2.814417 0 0.7372705)
(228.3353 15.43496 0 3.155541 0 0.7443448)
(228.3353 15.43496 0 3.155541 0 0.7443448)
(221.5279 15.68783 0 3.518023 0 0.7515345)
(221.528 15.68783 0 3.518023 0 0.7515345)
(214.5709 15.8674 0 3.897488 0 0.7588677)
(214.5709 15.8674 0 3.897489 0 0.7588677)
(207.4517 15.96702 0 4.288633 0 0.7663658)
(207.4517 15.96702 0 4.288633 0 0.7663657)
(200.1634 15.98219 0 4.685335 0 0.7740439)
(200.1634 15.98219 0 4.685335 0 0.7740439)
(192.7037 15.9105 0 5.08079 0 0.7819131)
(192.7037 15.9105 0 5.08079 0 0.7819131)
(185.0732 15.75145 0 5.467668 0 0.7899814)
(185.0732 15.75145 0 5.467668 0 0.7899814)
(177.2747 15.50628 0 5.838285 0 0.7982543)
(177.2747 15.50628 0 5.838285 0 0.7982543)
(169.3129 15.17767 0 6.18478 0 0.8067355)
(169.3129 15.17767 0 6.18478 0 0.8067355)
(161.1938 14.76955 0 6.499304 0 0.8154271)
(161.1938 14.76955 0 6.499304 0 0.8154271)
(152.9254 14.28687 0 6.774215 0 0.8243288)
(152.9254 14.28687 0 6.774215 0 0.8243288)
(144.5176 13.73539 0 7.002276 0 0.8334376)
(144.5176 13.73539 0 7.002275 0 0.8334376)
(135.9832 13.12158 0 7.176871 0 0.8427465)
(135.9832 13.12158 0 7.176871 0 0.8427465)
(127.3393 12.45249 0 7.292247 0 0.8522429)
(127.3392 12.45249 0 7.292246 0 0.852243)
(118.6078 11.73574 0 7.343701 0 0.8619077)
(118.6078 11.73574 0 7.343701 0 0.8619077)
(109.8176 10.97945 0 7.327821 0 0.8717125)
(109.8176 10.97945 0 7.32782 0 0.8717125)
(101.0058 10.19234 0 7.242767 0 0.8816181)
(101.0058 10.19233 0 7.242766 0 0.8816182)
(92.22002 9.383851 0 7.088608 0 0.8915715)
(92.21999 9.383849 0 7.088606 0 0.8915715)
(83.5205 8.564284 0 6.867688 0 0.9015031)
(83.52046 8.564281 0 6.867686 0 0.9015031)
(74.98147 7.744878 0 6.584994 0 0.9113249)
(74.98143 7.744875 0 6.584991 0 0.9113249)
(66.69141 6.93782 0 6.248432 0 0.92093)
(66.69138 6.937817 0 6.248429 0 0.92093)
(58.75077 6.155994 0 5.868895 0 0.9301949)
(58.75073 6.155991 0 5.868892 0 0.9301949)
(51.26596 5.4124 0 5.459919 0 0.9389865)
(51.26593 5.412397 0 5.459916 0 0.9389865)
(44.3393 4.719166 0 5.036792 0 0.9471743)
(44.33927 4.719164 0 5.03679 0 0.9471744)
(38.05574 4.086277 0 4.615091 0 0.9546465)
(38.05571 4.086275 0 4.615089 0 0.9546465)
(32.46996 3.52034 0 4.208905 0 0.9613261)
(32.46993 3.520337 0 4.208903 0 0.9613262)
(27.59803 3.023826 0 3.829232 0 0.9671824)
(27.59801 3.023825 0 3.82923 0 0.9671825)
(23.41722 2.595112 0 3.483061 0 0.972232)
(23.41721 2.595111 0 3.483059 0 0.9722321)
(19.87363 2.22929 0 3.173384 0 0.9765309)
(19.87362 2.229289 0 3.173383 0 0.9765309)
(16.89436 1.919429 0 2.899956 0 0.9801599)
(16.89435 1.919428 0 2.899955 0 0.9801599)
(14.39977 1.657817 0 2.660391 0 0.9832103)
(14.39977 1.657816 0 2.660391 0 0.9832103)
(12.31268 1.436911 0 2.451202 0 0.9857719)
(12.31268 1.43691 0 2.451201 0 0.9857719)
(10.56369 1.249881 0 2.26856 0 0.9879264)
(10.56369 1.249881 0 2.26856 0 0.9879264)
(9.093353 1.090844 0 2.108768 0 0.9897443)
(9.093351 1.090844 0 2.108768 0 0.9897443)
(7.852227 0.9548829 0 1.968488 0 0.9912846)
(7.852226 0.9548827 0 1.968488 0 0.9912846)
(6.79995 0.8379616 0 1.844824 0 0.9925956)
(6.799949 0.8379615 0 1.844824 0 0.9925956)
(5.903898 0.7368033 0 1.735322 0 0.9937165)
(5.903897 0.7368032 0 1.735322 0 0.9937165)
(5.137993 0.648777 0 1.637966 0 0.9946787)
(5.137993 0.6487769 0 1.637966 0 0.9946787)
(4.481184 0.5717521 0 1.551061 0 0.9955075)
(4.481183 0.5717521 0 1.551061 0 0.9955075)
(3.9154 0.5038917 0 1.473003 0 0.996225)
(3.915399 0.5038917 0 1.473003 0 0.996225)
(3.42645 0.4436877 0 1.402757 0 0.9968481)
(3.42645 0.4436877 0 1.402757 0 0.9968481)
(3.002874 0.3898434 0 1.339632 0 0.9973904)
(3.002874 0.3898434 0 1.339632 0 0.9973904)
(2.634866 0.3412195 0 1.282895 0 0.9978636)
(2.634866 0.3412195 0 1.282895 0 0.9978636)
(2.314877 0.2969088 0 1.231961 0 0.9982768)
(2.314877 0.2969088 0 1.231961 0 0.9982768)
(2.037377 0.2562127 0 1.186446 0 0.9986366)
(2.037377 0.2562127 0 1.186446 0 0.9986366)
(1.797877 0.2185679 0 1.145984 0 0.9989485)
(1.797877 0.2185679 0 1.145984 0 0.9989485)
(1.594311 0.1836269 0 1.110709 0 0.9992146)
(1.594311 0.1836269 0 1.110709 0 0.9992146)
(1.420893 0.1508982 0 1.079502 0 0.9994424)
(1.420893 0.1508982 0 1.079502 0 0.9994424)
(1.286904 0.1206454 0 1.055739 0 0.9996184)
(1.286904 0.1206454 0 1.055739 0 0.9996184)
(1.155432 0.09129061 0 1.028459 0 0.9997946)
(1.155432 0.09129061 0 1.028459 0 0.9997946)
(1.136684 0.06578138 0 1.032781 0 0.9998118)
(1.136684 0.06578138 0 1.032781 0 0.9998118)
(0.9532766 0.03749602 0 0.9811719 0 0.9999993)
(0.9532767 0.03749604 0 0.9811719 0 0.9999993)
(1.048578 0.01309271 0 1.015098 0 0.9999293)
(1.048578 0.01309273 0 1.015098 0 0.9999293)
)
;

boundaryField
{
    leftandright
    {
        type            cyclic;
        value           nonuniform List<symmTensor> 
150
(
(335.2388 10.27828 0 0.6299005 0 0.6289994)
(334.9458 10.27823 0 0.6304415 0 0.6293168)
(334.3616 10.28032 0 0.6317631 0 0.6299978)
(333.3978 10.28557 0 0.6343326 0 0.6311127)
(331.9294 10.29566 0 0.6388994 0 0.6327488)
(329.8664 10.315 0 0.6465154 0 0.6349837)
(327.2041 10.35171 0 0.6584629 0 0.6378647)
(323.9955 10.41707 0 0.6762479 0 0.6414275)
(320.1504 10.521 0 0.7019057 0 0.6457675)
(315.3037 10.66605 0 0.7389195 0 0.651058)
(309.3267 10.85474 0 0.7916917 0 0.6573553)
(302.4976 11.09241 0 0.8610005 0 0.6644694)
(295.3883 11.38476 0 0.9481443 0 0.6720194)
(288.2712 11.72793 0 1.054798 0 0.6797011)
(281.2641 12.11446 0 1.182887 0 0.6873298)
(274.4063 12.53526 0 1.334441 0 0.6948158)
(267.6952 12.97985 0 1.511406 0 0.7021329)
(261.1029 13.43646 0 1.715437 0 0.7092949)
(254.5869 13.89219 0 1.947699 0 0.7163392)
(248.0983 14.33339 0 2.208677 0 0.723315)
(241.5883 14.74628 0 2.498019 0 0.7302753)
(235.0128 15.11755 0 2.814417 0 0.7372705)
(228.3353 15.43496 0 3.155541 0 0.7443448)
(221.5279 15.68783 0 3.518023 0 0.7515345)
(214.5709 15.8674 0 3.897488 0 0.7588677)
(207.4517 15.96702 0 4.288633 0 0.7663657)
(200.1634 15.98219 0 4.685335 0 0.7740439)
(192.7037 15.9105 0 5.08079 0 0.7819131)
(185.0732 15.75145 0 5.467668 0 0.7899814)
(177.2747 15.50628 0 5.838285 0 0.7982543)
(169.3129 15.17767 0 6.18478 0 0.8067355)
(161.1938 14.76955 0 6.499304 0 0.8154271)
(152.9254 14.28687 0 6.774215 0 0.8243288)
(144.5176 13.73539 0 7.002276 0 0.8334376)
(135.9832 13.12158 0 7.176871 0 0.8427465)
(127.3392 12.45249 0 7.292246 0 0.852243)
(118.6078 11.73574 0 7.343701 0 0.8619077)
(109.8176 10.97945 0 7.327821 0 0.8717125)
(101.0058 10.19234 0 7.242767 0 0.8816181)
(92.22001 9.38385 0 7.088607 0 0.8915715)
(83.52048 8.564282 0 6.867687 0 0.9015031)
(74.98145 7.744877 0 6.584992 0 0.9113249)
(66.6914 6.937818 0 6.248431 0 0.92093)
(58.75075 6.155992 0 5.868893 0 0.9301949)
(51.26595 5.412399 0 5.459918 0 0.9389865)
(44.33928 4.719165 0 5.036791 0 0.9471743)
(38.05573 4.086276 0 4.61509 0 0.9546465)
(32.46994 3.520339 0 4.208904 0 0.9613262)
(27.59802 3.023826 0 3.829231 0 0.9671824)
(23.41722 2.595111 0 3.48306 0 0.972232)
(19.87362 2.22929 0 3.173383 0 0.9765309)
(16.89436 1.919428 0 2.899955 0 0.9801599)
(14.39977 1.657817 0 2.660391 0 0.9832103)
(12.31268 1.436911 0 2.451201 0 0.9857719)
(10.56369 1.249881 0 2.26856 0 0.9879264)
(9.093352 1.090844 0 2.108768 0 0.9897443)
(7.852226 0.9548828 0 1.968488 0 0.9912846)
(6.79995 0.8379615 0 1.844824 0 0.9925956)
(5.903897 0.7368033 0 1.735322 0 0.9937165)
(5.137993 0.648777 0 1.637966 0 0.9946787)
(4.481184 0.5717521 0 1.551061 0 0.9955075)
(3.9154 0.5038917 0 1.473003 0 0.996225)
(3.42645 0.4436877 0 1.402757 0 0.9968481)
(3.002874 0.3898434 0 1.339632 0 0.9973904)
(2.634866 0.3412195 0 1.282895 0 0.9978636)
(2.314877 0.2969088 0 1.231961 0 0.9982768)
(2.037377 0.2562127 0 1.186446 0 0.9986366)
(1.797877 0.2185679 0 1.145984 0 0.9989485)
(1.594311 0.1836269 0 1.110709 0 0.9992146)
(1.420893 0.1508982 0 1.079502 0 0.9994424)
(1.286904 0.1206454 0 1.055739 0 0.9996184)
(1.155432 0.09129061 0 1.028459 0 0.9997946)
(1.136684 0.06578138 0 1.032781 0 0.9998118)
(0.9532767 0.03749603 0 0.9811719 0 0.9999993)
(1.048578 0.01309272 0 1.015098 0 0.9999293)
(335.2388 10.27828 0 0.6299005 0 0.6289994)
(334.9458 10.27823 0 0.6304415 0 0.6293168)
(334.3616 10.28032 0 0.6317631 0 0.6299978)
(333.3978 10.28557 0 0.6343326 0 0.6311127)
(331.9294 10.29566 0 0.6388994 0 0.6327488)
(329.8664 10.315 0 0.6465154 0 0.6349837)
(327.2041 10.35171 0 0.6584629 0 0.6378647)
(323.9955 10.41707 0 0.6762479 0 0.6414275)
(320.1504 10.521 0 0.7019057 0 0.6457675)
(315.3037 10.66605 0 0.7389195 0 0.651058)
(309.3267 10.85474 0 0.7916917 0 0.6573553)
(302.4976 11.09241 0 0.8610005 0 0.6644694)
(295.3883 11.38476 0 0.9481443 0 0.6720194)
(288.2712 11.72793 0 1.054798 0 0.6797011)
(281.2641 12.11446 0 1.182887 0 0.6873298)
(274.4063 12.53526 0 1.334441 0 0.6948158)
(267.6952 12.97985 0 1.511406 0 0.7021329)
(261.1029 13.43646 0 1.715437 0 0.7092949)
(254.5869 13.89219 0 1.947699 0 0.7163392)
(248.0983 14.33339 0 2.208677 0 0.723315)
(241.5883 14.74628 0 2.498019 0 0.7302753)
(235.0128 15.11755 0 2.814417 0 0.7372705)
(228.3353 15.43496 0 3.155541 0 0.7443448)
(221.5279 15.68783 0 3.518023 0 0.7515345)
(214.5709 15.8674 0 3.897488 0 0.7588677)
(207.4517 15.96702 0 4.288633 0 0.7663657)
(200.1634 15.98219 0 4.685335 0 0.7740439)
(192.7037 15.9105 0 5.08079 0 0.7819131)
(185.0732 15.75145 0 5.467668 0 0.7899814)
(177.2747 15.50628 0 5.838285 0 0.7982543)
(169.3129 15.17767 0 6.18478 0 0.8067355)
(161.1938 14.76955 0 6.499304 0 0.8154271)
(152.9254 14.28687 0 6.774215 0 0.8243288)
(144.5176 13.73539 0 7.002276 0 0.8334376)
(135.9832 13.12158 0 7.176871 0 0.8427465)
(127.3392 12.45249 0 7.292246 0 0.852243)
(118.6078 11.73574 0 7.343701 0 0.8619077)
(109.8176 10.97945 0 7.327821 0 0.8717125)
(101.0058 10.19234 0 7.242767 0 0.8816181)
(92.22001 9.38385 0 7.088607 0 0.8915715)
(83.52048 8.564282 0 6.867687 0 0.9015031)
(74.98145 7.744877 0 6.584992 0 0.9113249)
(66.6914 6.937818 0 6.248431 0 0.92093)
(58.75075 6.155992 0 5.868893 0 0.9301949)
(51.26595 5.412399 0 5.459918 0 0.9389865)
(44.33928 4.719165 0 5.036791 0 0.9471743)
(38.05573 4.086276 0 4.61509 0 0.9546465)
(32.46994 3.520339 0 4.208904 0 0.9613262)
(27.59802 3.023826 0 3.829231 0 0.9671824)
(23.41722 2.595111 0 3.48306 0 0.972232)
(19.87362 2.22929 0 3.173383 0 0.9765309)
(16.89436 1.919428 0 2.899955 0 0.9801599)
(14.39977 1.657817 0 2.660391 0 0.9832103)
(12.31268 1.436911 0 2.451201 0 0.9857719)
(10.56369 1.249881 0 2.26856 0 0.9879264)
(9.093352 1.090844 0 2.108768 0 0.9897443)
(7.852226 0.9548828 0 1.968488 0 0.9912846)
(6.79995 0.8379615 0 1.844824 0 0.9925956)
(5.903897 0.7368033 0 1.735322 0 0.9937165)
(5.137993 0.648777 0 1.637966 0 0.9946787)
(4.481184 0.5717521 0 1.551061 0 0.9955075)
(3.9154 0.5038917 0 1.473003 0 0.996225)
(3.42645 0.4436877 0 1.402757 0 0.9968481)
(3.002874 0.3898434 0 1.339632 0 0.9973904)
(2.634866 0.3412195 0 1.282895 0 0.9978636)
(2.314877 0.2969088 0 1.231961 0 0.9982768)
(2.037377 0.2562127 0 1.186446 0 0.9986366)
(1.797877 0.2185679 0 1.145984 0 0.9989485)
(1.594311 0.1836269 0 1.110709 0 0.9992146)
(1.420893 0.1508982 0 1.079502 0 0.9994424)
(1.286904 0.1206454 0 1.055739 0 0.9996184)
(1.155432 0.09129061 0 1.028459 0 0.9997946)
(1.136684 0.06578138 0 1.032781 0 0.9998118)
(0.9532767 0.03749603 0 0.9811719 0 0.9999993)
(1.048578 0.01309272 0 1.015098 0 0.9999293)
)
;
    }
    wall
    {
        type            zeroGradient;
    }
    frontAndBack
    {
        type            empty;
    }
    middle
    {
        type            symmetryPlane;
        value           nonuniform List<symmTensor> 2((1.048578 0 0 1.015098 0 0.9999293) (1.048578 0 0 1.015098 0 0.9999293));
    }
}


// ************************************************************************* //
