/*--------------------------------*- C++ -*----------------------------------*\
| =========                 |                                                 |
| \\      /  F ield         | foam-extend: Open Source CFD                    |
|  \\    /   O peration     | Version:     4.0                                |
|   \\  /    A nd           | Web:         http://www.foam-extend.org         |
|    \\/     M anipulation  |                                                 |
\*---------------------------------------------------------------------------*/
FoamFile
{
    version     2.0;
    format      ascii;
    class       volScalarField;
    location    "10000";
    object      Ceps1;
}
// * * * * * * * * * * * * * * * * * * * * * * * * * * * * * * * * * * * * * //

dimensions      [0 0 0 0 0 0 0];

internalField   nonuniform List<scalar> 
150
(
5.795553
5.795553
3.461216
3.461216
2.767088
2.767087
2.442798
2.442798
2.257016
2.257016
2.137406
2.137406
2.054153
2.054153
1.992718
1.992718
1.945191
1.945191
1.90705
1.90705
1.875498
1.875498
1.848308
1.848308
1.824102
1.824102
1.802097
1.802097
1.781841
1.781841
1.76306
1.76306
1.74558
1.74558
1.729284
1.729284
1.714081
1.714081
1.699897
1.699897
1.686667
1.686667
1.674332
1.674332
1.662834
1.662834
1.65212
1.65212
1.64214
1.64214
1.632844
1.632844
1.624186
1.624186
1.616123
1.616123
1.608614
1.608614
1.601618
1.601618
1.595101
1.595101
1.589027
1.589027
1.583365
1.583365
1.578085
1.578085
1.573157
1.573157
1.568556
1.568556
1.564256
1.564256
1.560233
1.560233
1.556467
1.556467
1.552936
1.552936
1.549622
1.549622
1.546508
1.546508
1.543578
1.543578
1.540815
1.540815
1.538207
1.538207
1.535739
1.535739
1.533401
1.533401
1.53118
1.53118
1.529066
1.529066
1.527051
1.527051
1.525126
1.525126
1.523285
1.523285
1.521519
1.521519
1.519825
1.519825
1.518197
1.518197
1.51663
1.51663
1.515124
1.515124
1.513677
1.513677
1.512289
1.512289
1.510967
1.510967
1.509719
1.509719
1.508561
1.508561
1.507495
1.507495
1.506503
1.506503
1.505573
1.505573
1.504694
1.504694
1.503857
1.503857
1.503059
1.503059
1.502302
1.502302
1.501589
1.501589
1.500934
1.500934
1.500355
1.500355
1.499875
1.499875
1.499524
1.499524
1.499332
1.499332
)
;

boundaryField
{
    leftandright
    {
        type            cyclic;
        value           nonuniform List<scalar> 
150
(
5.795553
3.461216
2.767087
2.442798
2.257016
2.137406
2.054153
1.992718
1.945191
1.90705
1.875498
1.848308
1.824102
1.802097
1.781841
1.76306
1.74558
1.729284
1.714081
1.699897
1.686667
1.674332
1.662834
1.65212
1.64214
1.632844
1.624186
1.616123
1.608614
1.601618
1.595101
1.589027
1.583365
1.578085
1.573157
1.568556
1.564256
1.560233
1.556467
1.552936
1.549622
1.546508
1.543578
1.540815
1.538207
1.535739
1.533401
1.53118
1.529066
1.527051
1.525126
1.523285
1.521519
1.519825
1.518197
1.51663
1.515124
1.513677
1.512289
1.510967
1.509719
1.508561
1.507495
1.506503
1.505573
1.504694
1.503857
1.503059
1.502302
1.501589
1.500934
1.500355
1.499875
1.499524
1.499332
5.795553
3.461216
2.767087
2.442798
2.257016
2.137406
2.054153
1.992718
1.945191
1.90705
1.875498
1.848308
1.824102
1.802097
1.781841
1.76306
1.74558
1.729284
1.714081
1.699897
1.686667
1.674332
1.662834
1.65212
1.64214
1.632844
1.624186
1.616123
1.608614
1.601618
1.595101
1.589027
1.583365
1.578085
1.573157
1.568556
1.564256
1.560233
1.556467
1.552936
1.549622
1.546508
1.543578
1.540815
1.538207
1.535739
1.533401
1.53118
1.529066
1.527051
1.525126
1.523285
1.521519
1.519825
1.518197
1.51663
1.515124
1.513677
1.512289
1.510967
1.509719
1.508561
1.507495
1.506503
1.505573
1.504694
1.503857
1.503059
1.502302
1.501589
1.500934
1.500355
1.499875
1.499524
1.499332
)
;
    }
    wall
    {
        type            calculated;
        value           uniform 1.463;
    }
    frontAndBack
    {
        type            empty;
    }
    middle
    {
        type            symmetryPlane;
        value           nonuniform List<scalar> 2(1.499332 1.499332);
    }
}


// ************************************************************************* //
