/*--------------------------------*- C++ -*----------------------------------*\
| =========                 |                                                 |
| \\      /  F ield         | foam-extend: Open Source CFD                    |
|  \\    /   O peration     | Version:     4.0                                |
|   \\  /    A nd           | Web:         http://www.foam-extend.org         |
|    \\/     M anipulation  |                                                 |
\*---------------------------------------------------------------------------*/
FoamFile
{
    version     2.0;
    format      ascii;
    class       volScalarField;
    location    "10000";
    object      epsilonPlus;
}
// * * * * * * * * * * * * * * * * * * * * * * * * * * * * * * * * * * * * * //

dimensions      [0 4 -4 0 0 0 0];

internalField   nonuniform List<scalar> 
150
(
0.1701995
0.1701995
0.1490995
0.1490995
0.1325269
0.1325269
0.1202428
0.1202428
0.1120638
0.1120638
0.1077963
0.1077963
0.1071738
0.1071738
0.1098184
0.1098184
0.115243
0.115243
0.1228866
0.1228866
0.1318062
0.1318062
0.1405463
0.1405463
0.1480828
0.1480828
0.1537519
0.1537519
0.157218
0.157218
0.158415
0.158415
0.1574762
0.1574762
0.1546632
0.1546632
0.1503047
0.1503047
0.1447489
0.1447489
0.1383299
0.1383299
0.1313475
0.1313475
0.124057
0.124057
0.1166662
0.1166662
0.1093377
0.1093377
0.1021931
0.1021931
0.09531922
0.09531922
0.08877423
0.08877423
0.08259334
0.08259334
0.076794
0.076794
0.07138026
0.07138026
0.0663464
0.0663464
0.06167973
0.06167973
0.05736292
0.05736292
0.05337567
0.05337567
0.04969606
0.04969606
0.04630146
0.04630146
0.04316929
0.04316929
0.04027743
0.04027743
0.0376046
0.0376046
0.03513056
0.03513056
0.03283628
0.03283628
0.03070404
0.03070404
0.02871751
0.02871751
0.02686181
0.02686181
0.02512356
0.02512356
0.02349086
0.02349086
0.02195334
0.02195334
0.02050204
0.02050204
0.01912933
0.01912933
0.01782878
0.01782878
0.01659499
0.01659499
0.01542343
0.01542343
0.01431029
0.01431029
0.01325239
0.01325239
0.01224699
0.01224699
0.01129182
0.01129182
0.01038493
0.01038493
0.009524694
0.009524694
0.008709722
0.008709722
0.007938833
0.007938833
0.007210984
0.007210984
0.006525369
0.006525369
0.00588167
0.00588167
0.005280176
0.005280176
0.004721767
0.004721767
0.004207879
0.004207879
0.003740422
0.003740422
0.003321651
0.003321651
0.002954001
0.002954001
0.002639915
0.002639915
0.002381793
0.002381793
0.002182022
0.002182022
0.002043698
0.002043698
0.001970783
0.001970783
)
;

boundaryField
{
    leftandright
    {
        type            cyclic;
        value           nonuniform List<scalar> 
150
(
0.1701995
0.1490995
0.1325269
0.1202428
0.1120638
0.1077963
0.1071738
0.1098184
0.115243
0.1228866
0.1318062
0.1405463
0.1480828
0.1537519
0.157218
0.158415
0.1574762
0.1546632
0.1503047
0.1447489
0.1383299
0.1313475
0.124057
0.1166662
0.1093377
0.1021931
0.09531922
0.08877423
0.08259334
0.076794
0.07138026
0.0663464
0.06167973
0.05736292
0.05337567
0.04969606
0.04630146
0.04316929
0.04027743
0.0376046
0.03513056
0.03283628
0.03070404
0.02871751
0.02686181
0.02512356
0.02349086
0.02195334
0.02050204
0.01912933
0.01782878
0.01659499
0.01542343
0.01431029
0.01325239
0.01224699
0.01129182
0.01038493
0.009524694
0.008709722
0.007938833
0.007210984
0.006525369
0.00588167
0.005280176
0.004721767
0.004207879
0.003740422
0.003321651
0.002954001
0.002639915
0.002381793
0.002182022
0.002043698
0.001970783
0.1701995
0.1490995
0.1325269
0.1202428
0.1120638
0.1077963
0.1071738
0.1098184
0.115243
0.1228866
0.1318062
0.1405463
0.1480828
0.1537519
0.157218
0.158415
0.1574762
0.1546632
0.1503047
0.1447489
0.1383299
0.1313475
0.124057
0.1166662
0.1093377
0.1021931
0.09531922
0.08877423
0.08259334
0.076794
0.07138026
0.0663464
0.06167973
0.05736292
0.05337567
0.04969606
0.04630146
0.04316929
0.04027743
0.0376046
0.03513056
0.03283628
0.03070404
0.02871751
0.02686181
0.02512356
0.02349086
0.02195334
0.02050204
0.01912933
0.01782878
0.01659499
0.01542343
0.01431029
0.01325239
0.01224699
0.01129182
0.01038493
0.009524694
0.008709722
0.007938833
0.007210984
0.006525369
0.00588167
0.005280176
0.004721767
0.004207879
0.003740422
0.003321651
0.002954001
0.002639915
0.002381793
0.002182022
0.002043698
0.001970783
)
;
    }
    wall
    {
        type            calculated;
        value           nonuniform List<scalar> 2(0.1835077 0.1835077);
    }
    frontAndBack
    {
        type            empty;
    }
    middle
    {
        type            symmetryPlane;
        value           nonuniform List<scalar> 2(0.001970783 0.001970783);
    }
}


// ************************************************************************* //
