/*--------------------------------*- C++ -*----------------------------------*\
| =========                 |                                                 |
| \\      /  F ield         | foam-extend: Open Source CFD                    |
|  \\    /   O peration     | Version:     4.0                                |
|   \\  /    A nd           | Web:         http://www.foam-extend.org         |
|    \\/     M anipulation  |                                                 |
\*---------------------------------------------------------------------------*/
FoamFile
{
    version     2.0;
    format      ascii;
    class       volScalarField;
    location    "10000";
    object      epsilon;
}
// * * * * * * * * * * * * * * * * * * * * * * * * * * * * * * * * * * * * * //

dimensions      [0 2 -3 0 0 0 0];

internalField   nonuniform List<scalar> 
150
(
67.22881
67.22881
58.89432
58.89432
52.34811
52.34811
47.49591
47.49591
44.26519
44.2652
42.57955
42.57955
42.33366
42.33366
43.37826
43.37826
45.52099
45.52099
48.54022
48.54022
52.06344
52.06344
55.51579
55.51579
58.49271
58.49271
60.73201
60.73201
62.10109
62.1011
62.57393
62.57393
62.2031
62.2031
61.09196
61.09196
59.37036
59.37036
57.17581
57.17581
54.6403
54.6403
51.88226
51.88226
49.00251
49.00251
46.08316
46.08316
43.18839
43.18839
40.36627
40.36627
37.65109
37.65109
35.06582
35.06582
32.62437
32.62437
30.33363
30.33363
28.1952
28.1952
26.20683
26.20683
24.36349
24.36349
22.65835
22.65835
21.08339
21.08339
19.62994
19.62994
18.28908
18.28908
17.05187
17.05187
15.90959
15.90959
14.85382
14.85382
13.87657
13.87657
12.97033
12.97033
12.1281
12.1281
11.34342
11.34342
10.61042
10.61042
9.923804
9.923804
9.278891
9.278891
8.671571
8.671571
8.098306
8.098306
7.556086
7.556086
7.042368
7.042368
6.55502
6.55502
6.092254
6.092254
5.652566
5.652566
5.234692
5.234692
4.837561
4.837561
4.460269
4.460269
4.102048
4.102048
3.762254
3.762254
3.44034
3.44034
3.135839
3.135839
2.848339
2.848339
2.577521
2.577521
2.32326
2.32326
2.08567
2.08567
1.865098
1.865098
1.662112
1.662112
1.477467
1.477467
1.312052
1.312052
1.16683
1.16683
1.042766
1.042766
0.9408082
0.9408082
0.8618986
0.8618986
0.8072606
0.8072606
0.7784593
0.7784593
)
;

boundaryField
{
    leftandright
    {
        type            cyclic;
        value           nonuniform List<scalar> 
150
(
67.22881
58.89432
52.34811
47.49591
44.2652
42.57955
42.33366
43.37826
45.52099
48.54022
52.06344
55.51579
58.49271
60.73201
62.10109
62.57393
62.2031
61.09196
59.37036
57.17581
54.6403
51.88226
49.00251
46.08316
43.18839
40.36627
37.65109
35.06582
32.62437
30.33363
28.1952
26.20683
24.36349
22.65835
21.08339
19.62994
18.28908
17.05187
15.90959
14.85382
13.87657
12.97033
12.1281
11.34342
10.61042
9.923804
9.278891
8.671571
8.098306
7.556086
7.042368
6.55502
6.092254
5.652566
5.234692
4.837561
4.460269
4.102048
3.762254
3.44034
3.135839
2.848339
2.577521
2.32326
2.08567
1.865098
1.662112
1.477467
1.312052
1.16683
1.042766
0.9408082
0.8618986
0.8072606
0.7784593
67.22881
58.89432
52.34811
47.49591
44.2652
42.57955
42.33366
43.37826
45.52099
48.54022
52.06344
55.51579
58.49271
60.73201
62.10109
62.57393
62.2031
61.09196
59.37036
57.17581
54.6403
51.88226
49.00251
46.08316
43.18839
40.36627
37.65109
35.06582
32.62437
30.33363
28.1952
26.20683
24.36349
22.65835
21.08339
19.62994
18.28908
17.05187
15.90959
14.85382
13.87657
12.97033
12.1281
11.34342
10.61042
9.923804
9.278891
8.671571
8.098306
7.556086
7.042368
6.55502
6.092254
5.652566
5.234692
4.837561
4.460269
4.102048
3.762254
3.44034
3.135839
2.848339
2.577521
2.32326
2.08567
1.865098
1.662112
1.477467
1.312052
1.16683
1.042766
0.9408082
0.8618986
0.8072606
0.7784593
)
;
    }
    wall
    {
        type            groovyBC;
        refValue        nonuniform List<scalar> 2(72.48553 72.48553);
        refGradient     uniform 0;
        valueFraction   uniform 1;
        value           nonuniform List<scalar> 2(72.48553 72.48553);
        valueExpression "2*nu*internalField(k)/sqr(mag(delta()))";
        gradientExpression "0";
        fractionExpression "1";
        evaluateDuringConstruction 0;
        variables       "";
        timelines       (
);
        lookuptables    (
);
    }
    frontAndBack
    {
        type            empty;
    }
    middle
    {
        type            symmetryPlane;
        value           nonuniform List<scalar> 2(0.7784593 0.7784593);
    }
}


// ************************************************************************* //
