/*--------------------------------*- C++ -*----------------------------------*\
| =========                 |                                                 |
| \\      /  F ield         | foam-extend: Open Source CFD                    |
|  \\    /   O peration     | Version:     4.0                                |
|   \\  /    A nd           | Web:         http://www.foam-extend.org         |
|    \\/     M anipulation  |                                                 |
\*---------------------------------------------------------------------------*/
FoamFile
{
    version     2.0;
    format      ascii;
    class       volScalarField;
    location    "10000";
    object      EtauP;
}
// * * * * * * * * * * * * * * * * * * * * * * * * * * * * * * * * * * * * * //

dimensions      [0 2 -4 0 0 0 0];

internalField   nonuniform List<scalar> 
150
(
0.003598249
0.003598249
0.1039719
0.1039719
0.4975096
0.4975096
1.429683
1.429683
3.146995
3.146996
5.849658
5.849658
9.659278
9.659279
14.61738
14.61738
20.6701
20.6701
27.51249
27.51249
34.596
34.596
41.54854
41.54855
48.23069
48.23069
54.45412
54.45412
60.06541
60.06541
64.94827
64.94827
69.02081
69.02082
72.2313
72.23131
74.55464
74.55465
75.99022
75.99023
76.56032
76.56033
76.30836
76.30837
75.2962
75.2962
73.60055
73.60056
71.30869
71.3087
68.51379
68.5138
65.31063
65.31063
61.79175
61.79175
58.04452
58.04453
54.14908
54.14908
50.17702
50.17702
46.19087
46.19087
42.24409
42.24409
38.3815
38.3815
34.63992
34.63991
31.04918
31.04918
27.63284
27.63284
24.40911
24.4091
21.39179
21.39179
18.5912
18.59119
16.01482
16.01481
13.66783
13.66782
11.5533
11.55329
9.67194
9.671935
8.021543
8.021538
6.596038
6.596034
5.384653
5.38465
4.371575
4.371572
3.536517
3.536515
2.856246
2.856244
2.306634
2.306633
1.864634
1.864633
1.50966
1.509659
1.224252
1.224251
0.9941268
0.9941266
0.8078779
0.8078778
0.6565215
0.6565214
0.5330304
0.5330303
0.431917
0.431917
0.3489047
0.3489046
0.2806229
0.2806229
0.2243163
0.2243163
0.1778619
0.1778619
0.1395834
0.1395834
0.1080921
0.1080921
0.0822935
0.0822935
0.06132764
0.06132764
0.04447022
0.04447022
0.03119446
0.03119446
0.02078691
0.02078692
0.01339381
0.01339381
0.006771419
0.00677142
0.005981448
0.005981448
-0.002249894
-0.002249893
0.002123374
0.002123374
)
;

boundaryField
{
    leftandright
    {
        type            cyclic;
        value           nonuniform List<scalar> 
150
(
0.003598249
0.1039719
0.4975096
1.429683
3.146996
5.849658
9.659278
14.61738
20.6701
27.51249
34.596
41.54855
48.23069
54.45412
60.06541
64.94827
69.02082
72.23131
74.55465
75.99022
76.56033
76.30837
75.2962
73.60056
71.30869
68.5138
65.31063
61.79175
58.04453
54.14908
50.17702
46.19087
42.24409
38.3815
34.63991
31.04918
27.63284
24.4091
21.39179
18.5912
16.01481
13.66783
11.55329
9.671937
8.021541
6.596036
5.384652
4.371573
3.536516
2.856245
2.306634
1.864633
1.50966
1.224252
0.9941267
0.8078779
0.6565215
0.5330303
0.431917
0.3489046
0.2806229
0.2243163
0.1778619
0.1395834
0.1080921
0.0822935
0.06132764
0.04447022
0.03119446
0.02078692
0.01339381
0.006771419
0.005981448
-0.002249894
0.002123374
0.003598249
0.1039719
0.4975096
1.429683
3.146996
5.849658
9.659278
14.61738
20.6701
27.51249
34.596
41.54855
48.23069
54.45412
60.06541
64.94827
69.02082
72.23131
74.55465
75.99022
76.56033
76.30837
75.2962
73.60056
71.30869
68.5138
65.31063
61.79175
58.04453
54.14908
50.17702
46.19087
42.24409
38.3815
34.63991
31.04918
27.63284
24.4091
21.39179
18.5912
16.01481
13.66783
11.55329
9.671937
8.021541
6.596036
5.384652
4.371573
3.536516
2.856245
2.306634
1.864633
1.50966
1.224252
0.9941267
0.8078779
0.6565215
0.5330303
0.431917
0.3489046
0.2806229
0.2243163
0.1778619
0.1395834
0.1080921
0.0822935
0.06132764
0.04447022
0.03119446
0.02078692
0.01339381
0.006771419
0.005981448
-0.002249894
0.002123374
)
;
    }
    wall
    {
        type            calculated;
        value           nonuniform List<scalar> 2(1.112012e-07 1.112012e-07);
    }
    frontAndBack
    {
        type            empty;
    }
    middle
    {
        type            symmetryPlane;
        value           nonuniform List<scalar> 2(0.002123374 0.002123374);
    }
}


// ************************************************************************* //
