/*--------------------------------*- C++ -*----------------------------------*\
| =========                 |                                                 |
| \\      /  F ield         | foam-extend: Open Source CFD                    |
|  \\    /   O peration     | Version:     4.0                                |
|   \\  /    A nd           | Web:         http://www.foam-extend.org         |
|    \\/     M anipulation  |                                                 |
\*---------------------------------------------------------------------------*/
FoamFile
{
    version     2.0;
    format      ascii;
    class       volScalarField;
    location    "10000";
    object      eVyy;
}
// * * * * * * * * * * * * * * * * * * * * * * * * * * * * * * * * * * * * * //

dimensions      [0 2 -3 0 0 0 0];

internalField   nonuniform List<scalar> 
150
(
2.582783e-09
2.582783e-09
6.071557e-07
6.071557e-07
8.762577e-06
8.762578e-06
5.146601e-05
5.146601e-05
0.0001880393
0.0001880393
0.0005083065
0.0005083066
0.00111303
0.00111303
0.002089242
0.002089242
0.003491999
0.003491999
0.005588164
0.005588165
0.008980917
0.008980918
0.0133094
0.0133094
0.01866321
0.01866321
0.02512905
0.02512906
0.03279868
0.03279868
0.04175904
0.04175904
0.05208087
0.05208088
0.06380651
0.06380652
0.07693836
0.07693837
0.09142942
0.09142943
0.1071771
0.1071771
0.1240209
0.1240209
0.141744
0.1417441
0.1600784
0.1600785
0.1787125
0.1787125
0.1973008
0.1973008
0.2154744
0.2154745
0.2328526
0.2328526
0.249053
0.249053
0.2637035
0.2637035
0.2764517
0.2764517
0.286976
0.286976
0.2949941
0.2949941
0.3002727
0.3002727
0.3026357
0.3026356
0.3019732
0.3019731
0.2982455
0.2982455
0.2914886
0.2914886
0.2818195
0.2818194
0.2694422
0.2694421
0.2546529
0.2546528
0.2378417
0.2378416
0.2194903
0.2194902
0.2001588
0.2001587
0.1804584
0.1804583
0.1610077
0.1610076
0.1423748
0.1423747
0.1250188
0.1250187
0.109246
0.1092459
0.09519767
0.09519762
0.0828695
0.08286946
0.07215242
0.0721524
0.06287866
0.06287864
0.05485967
0.05485966
0.04791124
0.04791123
0.04186676
0.04186675
0.03658224
0.03658224
0.03193656
0.03193656
0.02782935
0.02782934
0.02417921
0.02417921
0.02091895
0.02091895
0.01798627
0.01798627
0.01534186
0.01534186
0.01296013
0.01296012
0.01081428
0.01081428
0.008883352
0.008883352
0.007153284
0.007153284
0.005611904
0.005611904
0.004261829
0.004261829
0.003072782
0.003072782
0.002136564
0.002136564
0.001158982
0.001158982
0.001087747
0.001087747
-0.0004283055
-0.0004283052
0.0004146812
0.0004146813
)
;

boundaryField
{
    leftandright
    {
        type            cyclic;
        value           nonuniform List<scalar> 
150
(
2.582783e-09
6.071557e-07
8.762578e-06
5.146601e-05
0.0001880393
0.0005083066
0.00111303
0.002089242
0.003491999
0.005588164
0.008980918
0.0133094
0.01866321
0.02512906
0.03279868
0.04175904
0.05208087
0.06380652
0.07693836
0.09142942
0.1071771
0.1240209
0.1417441
0.1600784
0.1787125
0.1973008
0.2154744
0.2328526
0.249053
0.2637035
0.2764517
0.286976
0.2949941
0.3002727
0.3026357
0.3019731
0.2982455
0.2914886
0.2818194
0.2694422
0.2546528
0.2378417
0.2194903
0.2001587
0.1804583
0.1610076
0.1423748
0.1250187
0.1092459
0.09519764
0.08286948
0.07215241
0.06287865
0.05485966
0.04791123
0.04186676
0.03658224
0.03193656
0.02782934
0.02417921
0.02091895
0.01798627
0.01534186
0.01296012
0.01081428
0.008883352
0.007153284
0.005611904
0.004261829
0.003072782
0.002136564
0.001158982
0.001087747
-0.0004283053
0.0004146813
2.582783e-09
6.071557e-07
8.762578e-06
5.146601e-05
0.0001880393
0.0005083066
0.00111303
0.002089242
0.003491999
0.005588164
0.008980918
0.0133094
0.01866321
0.02512906
0.03279868
0.04175904
0.05208087
0.06380652
0.07693836
0.09142942
0.1071771
0.1240209
0.1417441
0.1600784
0.1787125
0.1973008
0.2154744
0.2328526
0.249053
0.2637035
0.2764517
0.286976
0.2949941
0.3002727
0.3026357
0.3019731
0.2982455
0.2914886
0.2818194
0.2694422
0.2546528
0.2378417
0.2194903
0.2001587
0.1804583
0.1610076
0.1423748
0.1250187
0.1092459
0.09519764
0.08286948
0.07215241
0.06287865
0.05485966
0.04791123
0.04186676
0.03658224
0.03193656
0.02782934
0.02417921
0.02091895
0.01798627
0.01534186
0.01296012
0.01081428
0.008883352
0.007153284
0.005611904
0.004261829
0.003072782
0.002136564
0.001158982
0.001087747
-0.0004283053
0.0004146813
)
;
    }
    wall
    {
        type            calculated;
        value           nonuniform List<scalar> 2(1.482363e-09 1.482363e-09);
    }
    frontAndBack
    {
        type            empty;
    }
    middle
    {
        type            symmetryPlane;
        value           nonuniform List<scalar> 2(0.0004146812 0.0004146813);
    }
}


// ************************************************************************* //
