/*--------------------------------*- C++ -*----------------------------------*\
| =========                 |                                                 |
| \\      /  F ield         | foam-extend: Open Source CFD                    |
|  \\    /   O peration     | Version:     4.0                                |
|   \\  /    A nd           | Web:         http://www.foam-extend.org         |
|    \\/     M anipulation  |                                                 |
\*---------------------------------------------------------------------------*/
FoamFile
{
    version     2.0;
    format      ascii;
    class       volScalarField;
    location    "10000";
    object      f;
}
// * * * * * * * * * * * * * * * * * * * * * * * * * * * * * * * * * * * * * //

dimensions      [0 0 -1 0 0 0 0];

internalField   nonuniform List<scalar> 
150
(
0.06721312
0.06721312
0.2022138
0.2022138
0.3412992
0.3412992
0.4846081
0.4846081
0.6321625
0.6321625
0.7838508
0.7838508
0.9394079
0.9394079
1.098392
1.098392
1.260161
1.260161
1.423843
1.423843
1.58854
1.58854
1.753555
1.753555
1.9181
1.9181
2.081356
2.081356
2.242518
2.242518
2.400829
2.400829
2.555593
2.555593
2.706188
2.706189
2.852067
2.852067
2.992753
2.992753
3.127835
3.127835
3.256963
3.256963
3.37984
3.37984
3.496211
3.496211
3.605861
3.605861
3.708605
3.708605
3.804285
3.804285
3.892766
3.892766
3.97393
3.97393
4.047675
4.047675
4.113912
4.113912
4.172563
4.172563
4.223561
4.223561
4.266845
4.266845
4.302364
4.302364
4.330469
4.330469
4.351508
4.351508
4.3658
4.3658
4.373635
4.373635
4.375281
4.375281
4.370985
4.370985
4.360973
4.360973
4.345455
4.345455
4.324627
4.324627
4.298672
4.298672
4.267761
4.267761
4.232061
4.232061
4.191729
4.191729
4.146919
4.146919
4.097782
4.097782
4.04447
4.04447
3.987132
3.987132
3.925919
3.925919
3.860985
3.860985
3.792488
3.792488
3.720593
3.720593
3.645477
3.645477
3.56733
3.56733
3.486366
3.486366
3.402831
3.402831
3.317019
3.317019
3.22929
3.22929
3.1401
3.1401
3.050026
3.050026
2.959777
2.959777
2.870207
2.870207
2.782334
2.782334
2.697342
2.697342
2.616588
2.616588
2.541598
2.541598
2.474052
2.474052
2.415769
2.415769
2.368701
2.368701
2.334942
2.334942
2.31678
2.31678
)
;

boundaryField
{
    leftandright
    {
        type            cyclic;
        value           nonuniform List<scalar> 
150
(
0.06721312
0.2022138
0.3412992
0.4846081
0.6321625
0.7838508
0.9394079
1.098392
1.260161
1.423843
1.58854
1.753555
1.9181
2.081356
2.242518
2.400829
2.555593
2.706189
2.852067
2.992753
3.127835
3.256963
3.37984
3.496211
3.605861
3.708605
3.804285
3.892766
3.97393
4.047675
4.113912
4.172563
4.223561
4.266845
4.302364
4.330469
4.351508
4.3658
4.373635
4.375281
4.370985
4.360973
4.345455
4.324627
4.298672
4.267761
4.232061
4.191729
4.146919
4.097782
4.04447
3.987132
3.925919
3.860985
3.792488
3.720593
3.645477
3.56733
3.486366
3.402831
3.317019
3.22929
3.1401
3.050026
2.959777
2.870207
2.782334
2.697342
2.616588
2.541598
2.474052
2.415769
2.368701
2.334942
2.31678
0.06721312
0.2022138
0.3412992
0.4846081
0.6321625
0.7838508
0.9394079
1.098392
1.260161
1.423843
1.58854
1.753555
1.9181
2.081356
2.242518
2.400829
2.555593
2.706189
2.852067
2.992753
3.127835
3.256963
3.37984
3.496211
3.605861
3.708605
3.804285
3.892766
3.97393
4.047675
4.113912
4.172563
4.223561
4.266845
4.302364
4.330469
4.351508
4.3658
4.373635
4.375281
4.370985
4.360973
4.345455
4.324627
4.298672
4.267761
4.232061
4.191729
4.146919
4.097782
4.04447
3.987132
3.925919
3.860985
3.792488
3.720593
3.645477
3.56733
3.486366
3.402831
3.317019
3.22929
3.1401
3.050026
2.959777
2.870207
2.782334
2.697342
2.616588
2.541598
2.474052
2.415769
2.368701
2.334942
2.31678
)
;
    }
    wall
    {
        type            fixedValue;
        value           uniform 1e-10;
    }
    frontAndBack
    {
        type            empty;
    }
    middle
    {
        type            symmetryPlane;
        value           nonuniform List<scalar> 2(2.31678 2.31678);
    }
}


// ************************************************************************* //
