/*--------------------------------*- C++ -*----------------------------------*\
| =========                 |                                                 |
| \\      /  F ield         | foam-extend: Open Source CFD                    |
|  \\    /   O peration     | Version:     4.0                                |
|   \\  /    A nd           | Web:         http://www.foam-extend.org         |
|    \\/     M anipulation  |                                                 |
\*---------------------------------------------------------------------------*/
FoamFile
{
    version     2.0;
    format      ascii;
    class       volScalarField;
    location    "10000";
    object      k;
}
// * * * * * * * * * * * * * * * * * * * * * * * * * * * * * * * * * * * * * //

dimensions      [0 2 -2 0 0 0 0];

internalField   nonuniform List<scalar> 
150
(
0.006166947
0.006166947
0.06573507
0.06573508
0.1736156
0.1736156
0.3307241
0.3307241
0.5375047
0.5375048
0.7931038
0.7931038
1.094648
1.094648
1.437022
1.437022
1.813294
1.813294
2.214422
2.214422
2.62541
2.62541
3.026229
3.026229
3.40181
3.401811
3.740763
3.740763
4.03572
4.035721
4.283071
4.283071
4.482337
4.482337
4.635411
4.635411
4.7458
4.7458
4.817974
4.817974
4.856834
4.856835
4.86733
4.86733
4.854192
4.854192
4.82177
4.82177
4.773947
4.773947
4.714109
4.714109
4.645149
4.645149
4.569499
4.569499
4.489169
4.489169
4.405795
4.405795
4.320686
4.320686
4.234873
4.234873
4.149141
4.149141
4.064077
4.064077
3.980094
3.980094
3.897461
3.897461
3.816327
3.816327
3.736741
3.736741
3.658669
3.658669
3.582005
3.582005
3.506587
3.506587
3.432208
3.432208
3.358627
3.358627
3.285579
3.285579
3.212788
3.212788
3.139981
3.139981
3.066897
3.066897
2.993297
2.993297
2.918977
2.918977
2.843769
2.843769
2.767543
2.767543
2.690211
2.690211
2.611719
2.611719
2.532048
2.532048
2.451209
2.451209
2.369244
2.369244
2.286228
2.286228
2.202262
2.202262
2.117483
2.117483
2.032059
2.032059
1.946193
1.946193
1.860122
1.860122
1.774131
1.774131
1.6886
1.6886
1.604037
1.604037
1.521097
1.521097
1.4406
1.4406
1.363538
1.363538
1.291067
1.291067
1.224486
1.224486
1.165187
1.165187
1.114624
1.114624
1.074252
1.074252
1.045622
1.045622
1.03028
1.03028
)
;

boundaryField
{
    leftandright
    {
        type            cyclic;
        value           nonuniform List<scalar> 
150
(
0.006166947
0.06573507
0.1736156
0.3307241
0.5375048
0.7931038
1.094648
1.437022
1.813294
2.214422
2.62541
3.026229
3.401811
3.740763
4.035721
4.283071
4.482337
4.635411
4.7458
4.817974
4.856834
4.86733
4.854192
4.82177
4.773947
4.714109
4.645149
4.569499
4.489169
4.405795
4.320686
4.234873
4.149141
4.064077
3.980094
3.897461
3.816327
3.736741
3.658669
3.582005
3.506587
3.432208
3.358627
3.285579
3.212788
3.139981
3.066897
2.993297
2.918977
2.843769
2.767543
2.690211
2.611719
2.532048
2.451209
2.369244
2.286228
2.202262
2.117483
2.032059
1.946193
1.860122
1.774131
1.6886
1.604037
1.521097
1.4406
1.363538
1.291067
1.224486
1.165187
1.114624
1.074252
1.045622
1.03028
0.006166947
0.06573507
0.1736156
0.3307241
0.5375048
0.7931038
1.094648
1.437022
1.813294
2.214422
2.62541
3.026229
3.401811
3.740763
4.035721
4.283071
4.482337
4.635411
4.7458
4.817974
4.856834
4.86733
4.854192
4.82177
4.773947
4.714109
4.645149
4.569499
4.489169
4.405795
4.320686
4.234873
4.149141
4.064077
3.980094
3.897461
3.816327
3.736741
3.658669
3.582005
3.506587
3.432208
3.358627
3.285579
3.212788
3.139981
3.066897
2.993297
2.918977
2.843769
2.767543
2.690211
2.611719
2.532048
2.451209
2.369244
2.286228
2.202262
2.117483
2.032059
1.946193
1.860122
1.774131
1.6886
1.604037
1.521097
1.4406
1.363538
1.291067
1.224486
1.165187
1.114624
1.074252
1.045622
1.03028
)
;
    }
    wall
    {
        type            fixedValue;
        value           uniform 1e-10;
    }
    frontAndBack
    {
        type            empty;
    }
    middle
    {
        type            symmetryPlane;
        value           nonuniform List<scalar> 2(1.03028 1.03028);
    }
}


// ************************************************************************* //
