/*--------------------------------*- C++ -*----------------------------------*\
| =========                 |                                                 |
| \\      /  F ield         | foam-extend: Open Source CFD                    |
|  \\    /   O peration     | Version:     4.0                                |
|   \\  /    A nd           | Web:         http://www.foam-extend.org         |
|    \\/     M anipulation  |                                                 |
\*---------------------------------------------------------------------------*/
FoamFile
{
    version     2.0;
    format      ascii;
    class       volSymmTensorField;
    location    "10000";
    object      NLTPlus;
}
// * * * * * * * * * * * * * * * * * * * * * * * * * * * * * * * * * * * * * //

dimensions      [0 2 -2 0 0 0 0];

internalField   nonuniform List<symmTensor> 
150
(
(1.817567e-05 0 0 2.053558e-09 0 0)
(1.817567e-05 0 0 2.053558e-09 0 0)
(0.0009396655 0 0 4.828032e-07 0 0)
(0.0009396656 0 0 4.828033e-07 0 0)
(0.005967813 0 0 6.970538e-06 0 0)
(0.005967813 0 0 6.970539e-06 0 0)
(0.020412 0 0 4.097596e-05 0 0)
(0.020412 0 0 4.097596e-05 0 0)
(0.05045399 0 0 0.0001499551 0 0)
(0.05045399 0 0 0.0001499551 0 0)
(0.1012342 0 0 0.0004064036 0 0)
(0.1012342 0 0 0.0004064036 0 0)
(0.1750653 -2.252069e-20 0 0.0008930697 0 0)
(0.1750653 2.252069e-20 0 0.0008930698 0 0)
(0.2709904 0 0 0.001683845 0 0)
(0.2709904 0 0 0.001683845 0 0)
(0.3853245 0 0 0.002829915 0 0)
(0.3853245 1.291817e-19 0 0.002829915 0 0)
(0.5371849 0 0 0.004561066 0 0)
(0.5371849 0 0 0.004561067 0 0)
(0.7660441 0 0 0.007396067 0 0)
(0.7660442 0 0 0.007396068 0 0)
(1.019476 8.70518e-19 0 0.01107309 0 0)
(1.019476 -8.705181e-19 0 0.01107309 0 0)
(1.292788 0 0 0.01569029 0 0)
(1.292788 0 0 0.01569029 0 0)
(1.58077 -1.518658e-18 0 0.02134273 0 0)
(1.58077 1.518659e-18 0 0.02134273 0 0)
(1.878825 0 0 0.02812972 0 0)
(1.878825 0 0 0.02812972 0 0)
(2.182643 2.327995e-18 0 0.03614688 0 0)
(2.182643 0 0 0.03614688 0 0)
(2.487951 0 0 0.04547654 0 0)
(2.487951 0 0 0.04547655 0 0)
(2.790348 -6.549416e-18 0 0.05617722 0 0)
(2.790349 0 0 0.05617723 0 0)
(3.085256 0 0 0.06827333 0 0)
(3.085256 0 0 0.06827334 0 0)
(3.367974 1.725206e-17 0 0.08174621 0 0)
(3.367975 -8.626031e-18 0 0.08174622 0 0)
(3.633824 0 0 0.09652758 0 0)
(3.633825 0 0 0.09652759 0 0)
(3.878327 -2.148875e-17 0 0.1124959 0 0)
(3.878327 0 0 0.1124959 0 0)
(4.097392 -2.35296e-17 0 0.1294761 0 0)
(4.097392 0 0 0.1294761 0 0)
(4.287479 0 0 0.1472418 0 0)
(4.28748 0 0 0.1472419 0 0)
(4.445715 2.722574e-17 0 0.1655212 0 0)
(4.445715 0 0 0.1655212 0 0)
(4.569952 2.879404e-17 0 0.1840035 0 0)
(4.569953 0 0 0.1840035 0 0)
(4.658789 6.024983e-17 0 0.2023479 0 0)
(4.658789 0 0 0.2023479 0 0)
(4.711538 0 0 0.2201928 0 0)
(4.711538 0 0 0.2201929 0 0)
(4.728175 0 0 0.2371658 0 0)
(4.728176 0 0 0.2371658 0 0)
(4.70927 0 0 0.2528934 0 0)
(4.70927 0 0 0.2528934 0 0)
(4.655904 -6.513111e-17 0 0.267011 0 0)
(4.655904 6.513111e-17 0 0.267011 0 0)
(4.569603 -6.47863e-17 0 0.279173 0 0)
(4.569603 0 0 0.279173 0 0)
(4.452264 1.914575e-16 0 0.2890618 0 0)
(4.452264 0 0 0.2890618 0 0)
(4.306102 0 0 0.2963978 0 0)
(4.306102 0 0 0.2963978 0 0)
(4.133605 -1.202771e-16 0 0.3009481 0 0)
(4.133605 0 0 0.3009481 0 0)
(3.93752 0 0 0.3025369 0 0)
(3.93752 0 0 0.3025368 0 0)
(3.720818 -2.178028e-16 0 0.3010515 0 0)
(3.720817 1.089014e-16 0 0.3010515 0 0)
(3.486692 0 0 0.2964503 0 0)
(3.486692 0 0 0.2964502 0 0)
(3.23858 0 0 0.2887713 0 0)
(3.238579 0 0 0.2887712 0 0)
(2.980189 0 0 0.2781426 0 0)
(2.980188 0 0 0.2781425 0 0)
(2.715532 0 0 0.2647921 0 0)
(2.715532 0 0 0.264792 0 0)
(2.448941 0 0 0.2490557 0 0)
(2.44894 0 0 0.2490556 0 0)
(2.185036 0 0 0.2313808 0 0)
(2.185035 0 0 0.2313807 0 0)
(1.928616 2.167183e-16 0 0.2123192 0 0)
(1.928615 0 0 0.2123191 0 0)
(1.684434 9.346846e-17 0 0.1925033 0 0)
(1.684433 0 0 0.1925032 0 0)
(1.456845 0 0 0.1726019 0 0)
(1.456844 0 0 0.1726018 0 0)
(1.249367 0 0 0.1532562 0 0)
(1.249366 0 0 0.1532561 0 0)
(1.06428 0 0 0.1350104 0 0)
(1.064279 0 0 0.1350103 0 0)
(0.9024032 -9.407604e-17 0 0.1182551 0 0)
(0.9024027 0 0 0.1182551 0 0)
(0.7631431 -7.810925e-17 0 0.1032031 0 0)
(0.7631428 7.810921e-17 0 0.1032031 0 0)
(0.6448027 0 0 0.08990273 0 0)
(0.6448024 0 0 0.08990269 0 0)
(0.5450222 0 0 0.0782781 0 0)
(0.545022 0 0 0.07827807 0 0)
(0.4612042 0 0 0.06817834 0 0)
(0.4612041 0 0 0.06817831 0 0)
(0.3908269 0 0 0.05942022 0 0)
(0.3908268 0 0 0.0594202 0 0)
(0.331622 0 0 0.05181767 0 0)
(0.331622 0 0 0.05181766 0 0)
(0.2816458 5.073014e-17 0 0.04519842 0 0)
(0.2816458 -5.073013e-17 0 0.04519841 0 0)
(0.2392813 0 0 0.03941121 0 0)
(0.2392812 0 0 0.0394112 0 0)
(0.203207 0 0 0.03432731 0 0)
(0.203207 0 0 0.03432731 0 0)
(0.1723538 2.883907e-17 0 0.02983918 0 0)
(0.1723538 -2.883907e-17 0 0.02983917 0 0)
(0.1458668 0 0 0.02585901 0 0)
(0.1458668 0 0 0.02585901 0 0)
(0.1230543 0 0 0.022314 0 0)
(0.1230543 0 0 0.022314 0 0)
(0.1033168 0 0 0.01913658 0 0)
(0.1033168 0 0 0.01913658 0 0)
(0.08618947 5.156773e-17 0 0.01628251 0 0)
(0.08618947 0 0 0.01628251 0 0)
(0.07129899 0 0 0.01372144 0 0)
(0.07129899 2.067173e-17 0 0.01372144 0 0)
(0.05832016 0 0 0.01142235 0 0)
(0.05832016 0 0 0.01142235 0 0)
(0.04700147 0 0 0.009360857 0 0)
(0.04700147 0 0 0.009360857 0 0)
(0.03715889 0 0 0.007520306 0 0)
(0.0371589 1.951166e-17 0 0.007520306 0 0)
(0.02864006 0 0 0.00588629 0 0)
(0.02864006 0 0 0.005886291 0 0)
(0.02138285 0 0 0.00446009 0 0)
(0.02138285 0 0 0.00446009 0 0)
(0.01516973 0 0 0.003208669 0 0)
(0.01516973 0 0 0.003208669 0 0)
(0.01039045 0 0 0.00222638 0 0)
(0.01039046 0 0 0.00222638 0 0)
(0.00556143 0 0 0.001205454 0 0)
(0.005561431 0 0 0.001205454 0 0)
(0.005161041 0 0 0.001129443 0 0)
(0.005161041 0 0 0.001129443 0 0)
(-0.002015753 -0 -0 -0.0004442439 -0 -0)
(-0.002015752 -0 -0 -0.0004442436 -0 -0)
(0.001942587 1.496719e-18 0 0.0004297809 0 0)
(0.001942588 0 0 0.000429781 0 0)
)
;

boundaryField
{
    leftandright
    {
        type            cyclic;
        value           nonuniform List<symmTensor> 
150
(
(1.817567e-05 0 0 2.053558e-09 0 0)
(0.0009396656 0 0 4.828033e-07 0 0)
(0.005967813 0 0 6.970538e-06 0 0)
(0.020412 0 0 4.097596e-05 0 0)
(0.05045399 0 0 0.0001499551 0 0)
(0.1012342 0 0 0.0004064036 0 0)
(0.1750653 1.238393e-35 0 0.0008930697 0 0)
(0.2709904 0 0 0.001683845 0 0)
(0.3853245 6.459083e-20 0 0.002829915 0 0)
(0.5371849 0 0 0.004561066 0 0)
(0.7660441 0 0 0.007396067 0 0)
(1.019476 6.824317e-35 0 0.01107309 0 0)
(1.292788 0 0 0.01569029 0 0)
(1.58077 -3.946042e-34 0 0.02134273 0 0)
(1.878825 0 0 0.02812972 0 0)
(2.182643 1.163997e-18 0 0.03614688 0 0)
(2.487951 0 0 0.04547654 0 0)
(2.790349 -3.274708e-18 0 0.05617723 0 0)
(3.085256 0 0 0.06827333 0 0)
(3.367975 4.313015e-18 0 0.08174621 0 0)
(3.633824 0 0 0.09652759 0 0)
(3.878327 -1.074438e-17 0 0.1124959 0 0)
(4.097392 -1.17648e-17 0 0.1294761 0 0)
(4.28748 0 0 0.1472418 0 0)
(4.445715 1.361287e-17 0 0.1655212 0 0)
(4.569952 1.439702e-17 0 0.1840035 0 0)
(4.658789 3.012492e-17 0 0.2023479 0 0)
(4.711538 0 0 0.2201929 0 0)
(4.728176 0 0 0.2371658 0 0)
(4.70927 0 0 0.2528934 0 0)
(4.655904 0 0 0.267011 0 0)
(4.569603 -3.239315e-17 0 0.279173 0 0)
(4.452264 9.572874e-17 0 0.2890618 0 0)
(4.306102 0 0 0.2963978 0 0)
(4.133605 -6.013856e-17 0 0.3009481 0 0)
(3.93752 0 0 0.3025369 0 0)
(3.720818 -5.445069e-17 0 0.3010515 0 0)
(3.486692 0 0 0.2964502 0 0)
(3.238579 0 0 0.2887713 0 0)
(2.980188 0 0 0.2781426 0 0)
(2.715532 0 0 0.2647921 0 0)
(2.448941 0 0 0.2490557 0 0)
(2.185035 0 0 0.2313808 0 0)
(1.928615 1.083591e-16 0 0.2123192 0 0)
(1.684434 4.673422e-17 0 0.1925033 0 0)
(1.456845 0 0 0.1726018 0 0)
(1.249366 0 0 0.1532561 0 0)
(1.06428 0 0 0.1350104 0 0)
(0.902403 -4.703801e-17 0 0.1182551 0 0)
(0.763143 -8.65012e-32 0 0.1032031 0 0)
(0.6448026 0 0 0.08990271 0 0)
(0.5450221 0 0 0.07827808 0 0)
(0.4612042 0 0 0.06817833 0 0)
(0.3908268 0 0 0.05942021 0 0)
(0.331622 0 0 0.05181766 0 0)
(0.2816458 4.456908e-33 0 0.04519842 0 0)
(0.2392812 0 0 0.03941121 0 0)
(0.203207 0 0 0.03432731 0 0)
(0.1723538 5.884739e-33 0 0.02983917 0 0)
(0.1458668 0 0 0.02585901 0 0)
(0.1230543 0 0 0.022314 0 0)
(0.1033168 0 0 0.01913658 0 0)
(0.08618947 2.578387e-17 0 0.01628251 0 0)
(0.07129899 1.033587e-17 0 0.01372144 0 0)
(0.05832016 0 0 0.01142235 0 0)
(0.04700147 0 0 0.009360857 0 0)
(0.0371589 9.755831e-18 0 0.007520306 0 0)
(0.02864006 0 0 0.005886291 0 0)
(0.02138285 0 0 0.00446009 0 0)
(0.01516973 0 0 0.003208669 0 0)
(0.01039046 0 0 0.00222638 0 0)
(0.005561431 0 0 0.001205454 0 0)
(0.005161041 0 0 0.001129443 0 0)
(-0.002015752 -0 -0 -0.0004442438 -0 -0)
(0.001942588 7.483594e-19 0 0.0004297809 0 0)
(1.817567e-05 0 0 2.053558e-09 0 0)
(0.0009396656 0 0 4.828033e-07 0 0)
(0.005967813 0 0 6.970538e-06 0 0)
(0.020412 0 0 4.097596e-05 0 0)
(0.05045399 0 0 0.0001499551 0 0)
(0.1012342 0 0 0.0004064036 0 0)
(0.1750653 1.375992e-35 0 0.0008930697 0 0)
(0.2709904 0 0 0.001683845 0 0)
(0.3853245 6.459083e-20 0 0.002829915 0 0)
(0.5371849 0 0 0.004561066 0 0)
(0.7660441 0 0 0.007396067 0 0)
(1.019476 6.824317e-35 0 0.01107309 0 0)
(1.292788 0 0 0.01569029 0 0)
(1.58077 -3.946042e-34 0 0.02134273 0 0)
(1.878825 0 0 0.02812972 0 0)
(2.182643 1.163997e-18 0 0.03614688 0 0)
(2.487951 0 0 0.04547654 0 0)
(2.790349 -3.274708e-18 0 0.05617723 0 0)
(3.085256 0 0 0.06827333 0 0)
(3.367975 4.313015e-18 0 0.08174621 0 0)
(3.633824 0 0 0.09652759 0 0)
(3.878327 -1.074438e-17 0 0.1124959 0 0)
(4.097392 -1.17648e-17 0 0.1294761 0 0)
(4.28748 0 0 0.1472418 0 0)
(4.445715 1.361287e-17 0 0.1655212 0 0)
(4.569952 1.439702e-17 0 0.1840035 0 0)
(4.658789 3.012492e-17 0 0.2023479 0 0)
(4.711538 0 0 0.2201929 0 0)
(4.728176 0 0 0.2371658 0 0)
(4.70927 0 0 0.2528934 0 0)
(4.655904 0 0 0.267011 0 0)
(4.569603 -3.239315e-17 0 0.279173 0 0)
(4.452264 9.572874e-17 0 0.2890618 0 0)
(4.306102 0 0 0.2963978 0 0)
(4.133605 -6.013856e-17 0 0.3009481 0 0)
(3.93752 0 0 0.3025369 0 0)
(3.720818 -5.445069e-17 0 0.3010515 0 0)
(3.486692 0 0 0.2964502 0 0)
(3.238579 0 0 0.2887713 0 0)
(2.980188 0 0 0.2781426 0 0)
(2.715532 0 0 0.2647921 0 0)
(2.448941 0 0 0.2490557 0 0)
(2.185035 0 0 0.2313808 0 0)
(1.928615 1.083591e-16 0 0.2123192 0 0)
(1.684434 4.673422e-17 0 0.1925033 0 0)
(1.456845 0 0 0.1726018 0 0)
(1.249366 0 0 0.1532561 0 0)
(1.06428 0 0 0.1350104 0 0)
(0.902403 -4.703801e-17 0 0.1182551 0 0)
(0.763143 -8.65012e-32 0 0.1032031 0 0)
(0.6448026 0 0 0.08990271 0 0)
(0.5450221 0 0 0.07827808 0 0)
(0.4612042 0 0 0.06817833 0 0)
(0.3908268 0 0 0.05942021 0 0)
(0.331622 0 0 0.05181766 0 0)
(0.2816458 4.456908e-33 0 0.04519842 0 0)
(0.2392812 0 0 0.03941121 0 0)
(0.203207 0 0 0.03432731 0 0)
(0.1723538 5.884739e-33 0 0.02983917 0 0)
(0.1458668 0 0 0.02585901 0 0)
(0.1230543 0 0 0.022314 0 0)
(0.1033168 0 0 0.01913658 0 0)
(0.08618947 2.578387e-17 0 0.01628251 0 0)
(0.07129899 1.033587e-17 0 0.01372144 0 0)
(0.05832016 0 0 0.01142235 0 0)
(0.04700147 0 0 0.009360857 0 0)
(0.0371589 9.755831e-18 0 0.007520306 0 0)
(0.02864006 0 0 0.005886291 0 0)
(0.02138285 0 0 0.00446009 0 0)
(0.01516973 0 0 0.003208669 0 0)
(0.01039046 0 0 0.00222638 0 0)
(0.005561431 0 0 0.001205454 0 0)
(0.005161041 0 0 0.001129443 0 0)
(-0.002015752 -0 -0 -0.0004442438 -0 -0)
(0.001942588 7.483594e-19 0 0.0004297809 0 0)
)
;
    }
    wall
    {
        type            calculated;
        value           nonuniform List<symmTensor> 2((1.382702e-09 0 0 7.604861e-10 0 0) (1.382702e-09 0 0 7.604861e-10 0 0));
    }
    frontAndBack
    {
        type            empty;
    }
    middle
    {
        type            symmetryPlane;
        value           nonuniform List<symmTensor> 2((0.001942587 0 0 0.0004297809 0 0) (0.001942588 0 0 0.000429781 0 0));
    }
}


// ************************************************************************* //
