/*--------------------------------*- C++ -*----------------------------------*\
| =========                 |                                                 |
| \\      /  F ield         | foam-extend: Open Source CFD                    |
|  \\    /   O peration     | Version:     4.0                                |
|   \\  /    A nd           | Web:         http://www.foam-extend.org         |
|    \\/     M anipulation  |                                                 |
\*---------------------------------------------------------------------------*/
FoamFile
{
    version     2.0;
    format      ascii;
    class       volSymmTensorField;
    location    "10000";
    object      normaln;
}
// * * * * * * * * * * * * * * * * * * * * * * * * * * * * * * * * * * * * * //

dimensions      [0 0 0 0 0 0 0];

internalField   nonuniform List<symmTensor> 
150
(
(0 0 0 1 0 0)
(0 0 0 1 0 0)
(0 0 0 1 0 0)
(0 0 0 1 0 0)
(0 0 0 1 0 0)
(0 0 0 1 0 0)
(0 0 0 1 0 0)
(0 0 0 1 0 0)
(0 0 0 1 0 0)
(0 0 0 1 0 0)
(0 0 0 1 0 0)
(0 0 0 1 0 0)
(6.359057e-34 -2.521717e-17 -0 1 0 0)
(6.359057e-34 2.521717e-17 0 1 0 0)
(0 0 0 1 0 0)
(0 0 0 1 0 0)
(0 0 0 1 0 0)
(2.083794e-33 4.56486e-17 0 1 0 0)
(0 0 0 1 0 0)
(0 0 0 1 0 0)
(0 0 0 1 0 0)
(0 0 0 1 0 0)
(6.180421e-33 7.861566e-17 0 1 0 0)
(6.180421e-33 -7.861566e-17 -0 1 0 0)
(0 0 0 1 0 0)
(0 0 0 1 0 0)
(5.063144e-33 -7.115577e-17 -0 1 0 0)
(5.063144e-33 7.115577e-17 0 1 0 0)
(0 0 0 1 0 0)
(0 0 0 1 0 0)
(4.147844e-33 6.440376e-17 0 1 0 0)
(0 0 0 1 0 0)
(0 0 0 1 0 0)
(0 0 0 1 0 0)
(1.359204e-32 -1.165849e-16 -0 1 0 0)
(0 0 0 1 0 0)
(0 0 0 1 0 0)
(0 0 0 1 0 0)
(4.453964e-32 2.110442e-16 0 1 0 0)
(1.113491e-32 -1.055221e-16 -0 1 0 0)
(0 0 0 1 0 0)
(0 0 0 1 0 0)
(3.64879e-32 -1.910181e-16 -0 1 0 0)
(0 0 0 1 0 0)
(3.302554e-32 -1.817293e-16 -0 1 0 0)
(0 0 0 1 0 0)
(0 0 0 1 0 0)
(0 0 0 1 0 0)
(2.705529e-32 1.644849e-16 0 1 0 0)
(0 0 0 1 0 0)
(2.448799e-32 1.564864e-16 0 1 0 0)
(0 0 0 1 0 0)
(8.865725e-32 2.977537e-16 0 1 0 0)
(0 0 0 1 0 0)
(0 0 0 1 0 0)
(0 0 0 1 0 0)
(0 0 0 1 0 0)
(0 0 0 1 0 0)
(0 0 0 1 0 0)
(0 0 0 1 0 0)
(5.950022e-32 -2.439267e-16 -0 1 0 0)
(5.950022e-32 2.439267e-16 0 1 0 0)
(5.385421e-32 -2.320651e-16 -0 1 0 0)
(0 0 0 1 0 0)
(4.386956e-31 6.62341e-16 0 1 0 0)
(0 0 0 1 0 0)
(0 0 0 1 0 0)
(0 0 0 1 0 0)
(1.597287e-31 -3.996607e-16 -0 1 0 0)
(0 0 0 1 0 0)
(0 0 0 1 0 0)
(0 0 0 1 0 0)
(5.234137e-31 -7.234734e-16 -0 1 0 0)
(1.308534e-31 3.617367e-16 0 1 0 0)
(0 0 0 1 0 0)
(0 0 0 1 0 0)
(0 0 0 1 0 0)
(0 0 0 1 0 0)
(0 0 0 1 0 0)
(0 0 0 1 0 0)
(0 0 0 1 0 0)
(0 0 0 1 0 0)
(0 0 0 1 0 0)
(0 0 0 1 0 0)
(0 0 0 1 0 0)
(0 0 0 1 0 0)
(1.041868e-30 1.020719e-15 0 1 0 0)
(0 0 0 1 0 0)
(2.357511e-31 4.855421e-16 0 1 0 0)
(0 0 0 1 0 0)
(0 0 0 1 0 0)
(0 0 0 1 0 0)
(0 0 0 1 0 0)
(0 0 0 1 0 0)
(0 0 0 1 0 0)
(0 0 0 1 0 0)
(6.328751e-31 -7.955345e-16 -0 1 0 0)
(0 0 0 1 0 0)
(5.728212e-31 -7.568496e-16 -0 1 0 0)
(5.728212e-31 7.568496e-16 0 1 0 0)
(0 0 0 1 0 0)
(0 0 0 1 0 0)
(0 0 0 1 0 0)
(0 0 0 1 0 0)
(0 0 0 1 0 0)
(0 0 0 1 0 0)
(0 0 0 1 0 0)
(0 0 0 1 0 0)
(0 0 0 1 0 0)
(0 0 0 1 0 0)
(1.259754e-30 1.122387e-15 0 1 0 0)
(1.259754e-30 -1.122387e-15 -0 1 0 0)
(0 0 0 1 0 0)
(0 0 0 1 0 0)
(0 0 0 1 0 0)
(0 0 0 1 0 0)
(9.340903e-31 9.664834e-16 0 1 0 0)
(9.340903e-31 -9.664834e-16 -0 1 0 0)
(0 0 0 1 0 0)
(0 0 0 1 0 0)
(0 0 0 1 0 0)
(0 0 0 1 0 0)
(0 0 0 1 0 0)
(0 0 0 1 0 0)
(1.003028e-29 3.167062e-15 0 1 0 0)
(0 0 0 1 0 0)
(0 0 0 1 0 0)
(2.269626e-30 1.506528e-15 0 1 0 0)
(0 0 0 1 0 0)
(0 0 0 1 0 0)
(0 0 0 1 0 0)
(0 0 0 1 0 0)
(0 0 0 1 0 0)
(6.731587e-30 2.59453e-15 0 1 0 0)
(0 0 0 1 0 0)
(0 0 0 1 0 0)
(0 0 0 1 0 0)
(0 0 0 1 0 0)
(0 0 0 1 0 0)
(0 0 0 1 0 0)
(0 0 0 1 0 0)
(0 0 0 1 0 0)
(0 0 0 1 0 0)
(0 0 0 1 0 0)
(0 0 0 1 0 0)
(0 0 0 1 0 0)
(0 0 0 1 0 0)
(0 0 0 1 0 0)
(1.212791e-29 3.482516e-15 0 1 0 0)
(0 0 0 1 0 0)
)
;

boundaryField
{
    leftandright
    {
        type            cyclic;
        value           nonuniform List<symmTensor> 
150
(
(0 0 0 1 0 0)
(0 0 0 1 0 0)
(0 0 0 1 0 0)
(0 0 0 1 0 0)
(0 0 0 1 0 0)
(0 0 0 1 0 0)
(1.922852e-64 1.38667e-32 0 1 0 0)
(0 0 0 1 0 0)
(5.209486e-34 2.28243e-17 0 1 0 0)
(0 0 0 1 0 0)
(0 0 0 1 0 0)
(3.798227e-65 6.162976e-33 0 1 0 0)
(0 0 0 1 0 0)
(3.418404e-64 -1.848893e-32 -0 1 0 0)
(0 0 0 1 0 0)
(1.036961e-33 3.220188e-17 0 1 0 0)
(0 0 0 1 0 0)
(3.398009e-33 -5.829245e-17 -0 1 0 0)
(0 0 0 1 0 0)
(2.783728e-33 5.276104e-17 0 1 0 0)
(0 0 0 1 0 0)
(9.121975e-33 -9.550903e-17 -0 1 0 0)
(8.256386e-33 -9.086466e-17 -0 1 0 0)
(0 0 0 1 0 0)
(6.763821e-33 8.224245e-17 0 1 0 0)
(6.121998e-33 7.82432e-17 0 1 0 0)
(2.216431e-32 1.488768e-16 0 1 0 0)
(0 0 0 1 0 0)
(0 0 0 1 0 0)
(0 0 0 1 0 0)
(0 0 0 1 0 0)
(1.346355e-32 -1.160326e-16 -0 1 0 0)
(1.096739e-31 3.311705e-16 0 1 0 0)
(0 0 0 1 0 0)
(3.993217e-32 -1.998304e-16 -0 1 0 0)
(0 0 0 1 0 0)
(3.271336e-32 -1.808683e-16 -0 1 0 0)
(0 0 0 1 0 0)
(0 0 0 1 0 0)
(0 0 0 1 0 0)
(0 0 0 1 0 0)
(0 0 0 1 0 0)
(0 0 0 1 0 0)
(2.60467e-31 5.103596e-16 0 1 0 0)
(5.893777e-32 2.42771e-16 0 1 0 0)
(0 0 0 1 0 0)
(0 0 0 1 0 0)
(0 0 0 1 0 0)
(1.582188e-31 -3.977672e-16 -0 1 0 0)
(7.025201e-61 -8.381647e-31 -0 1 0 0)
(0 0 0 1 0 0)
(0 0 0 1 0 0)
(0 0 0 1 0 0)
(0 0 0 1 0 0)
(0 0 0 1 0 0)
(9.723461e-63 9.860761e-32 0 1 0 0)
(0 0 0 1 0 0)
(0 0 0 1 0 0)
(3.889385e-62 1.972152e-31 0 1 0 0)
(0 0 0 1 0 0)
(0 0 0 1 0 0)
(0 0 0 1 0 0)
(2.507571e-30 1.583531e-15 0 1 0 0)
(5.674064e-31 7.532638e-16 0 1 0 0)
(0 0 0 1 0 0)
(0 0 0 1 0 0)
(1.682897e-30 1.297265e-15 0 1 0 0)
(0 0 0 1 0 0)
(0 0 0 1 0 0)
(0 0 0 1 0 0)
(0 0 0 1 0 0)
(0 0 0 1 0 0)
(0 0 0 1 0 0)
(0 0 0 1 0 0)
(3.031979e-30 1.741258e-15 0 1 0 0)
(0 0 0 1 0 0)
(0 0 0 1 0 0)
(0 0 0 1 0 0)
(0 0 0 1 0 0)
(0 0 0 1 0 0)
(0 0 0 1 0 0)
(2.373892e-64 1.540744e-32 0 1 0 0)
(0 0 0 1 0 0)
(5.209486e-34 2.28243e-17 0 1 0 0)
(0 0 0 1 0 0)
(0 0 0 1 0 0)
(3.798227e-65 6.162976e-33 0 1 0 0)
(0 0 0 1 0 0)
(3.418404e-64 -1.848893e-32 -0 1 0 0)
(0 0 0 1 0 0)
(1.036961e-33 3.220188e-17 0 1 0 0)
(0 0 0 1 0 0)
(3.398009e-33 -5.829245e-17 -0 1 0 0)
(0 0 0 1 0 0)
(2.783728e-33 5.276104e-17 0 1 0 0)
(0 0 0 1 0 0)
(9.121975e-33 -9.550903e-17 -0 1 0 0)
(8.256386e-33 -9.086466e-17 -0 1 0 0)
(0 0 0 1 0 0)
(6.763821e-33 8.224245e-17 0 1 0 0)
(6.121998e-33 7.82432e-17 0 1 0 0)
(2.216431e-32 1.488768e-16 0 1 0 0)
(0 0 0 1 0 0)
(0 0 0 1 0 0)
(0 0 0 1 0 0)
(0 0 0 1 0 0)
(1.346355e-32 -1.160326e-16 -0 1 0 0)
(1.096739e-31 3.311705e-16 0 1 0 0)
(0 0 0 1 0 0)
(3.993217e-32 -1.998304e-16 -0 1 0 0)
(0 0 0 1 0 0)
(3.271336e-32 -1.808683e-16 -0 1 0 0)
(0 0 0 1 0 0)
(0 0 0 1 0 0)
(0 0 0 1 0 0)
(0 0 0 1 0 0)
(0 0 0 1 0 0)
(0 0 0 1 0 0)
(2.60467e-31 5.103596e-16 0 1 0 0)
(5.893777e-32 2.42771e-16 0 1 0 0)
(0 0 0 1 0 0)
(0 0 0 1 0 0)
(0 0 0 1 0 0)
(1.582188e-31 -3.977672e-16 -0 1 0 0)
(7.025201e-61 -8.381647e-31 -0 1 0 0)
(0 0 0 1 0 0)
(0 0 0 1 0 0)
(0 0 0 1 0 0)
(0 0 0 1 0 0)
(0 0 0 1 0 0)
(9.723461e-63 9.860761e-32 0 1 0 0)
(0 0 0 1 0 0)
(0 0 0 1 0 0)
(3.889385e-62 1.972152e-31 0 1 0 0)
(0 0 0 1 0 0)
(0 0 0 1 0 0)
(0 0 0 1 0 0)
(2.507571e-30 1.583531e-15 0 1 0 0)
(5.674064e-31 7.532638e-16 0 1 0 0)
(0 0 0 1 0 0)
(0 0 0 1 0 0)
(1.682897e-30 1.297265e-15 0 1 0 0)
(0 0 0 1 0 0)
(0 0 0 1 0 0)
(0 0 0 1 0 0)
(0 0 0 1 0 0)
(0 0 0 1 0 0)
(0 0 0 1 0 0)
(0 0 0 1 0 0)
(3.031979e-30 1.741258e-15 0 1 0 0)
)
;
    }
    wall
    {
        type            calculated;
        value           uniform (0 0 0 1 0 0);
    }
    frontAndBack
    {
        type            empty;
    }
    middle
    {
        type            symmetryPlane;
        value           nonuniform List<symmTensor> 2((1.212791e-14 0 0 0 0 0) (0 0 0 0 0 0));
    }
}


// ************************************************************************* //
