/*--------------------------------*- C++ -*----------------------------------*\
| =========                 |                                                 |
| \\      /  F ield         | foam-extend: Open Source CFD                    |
|  \\    /   O peration     | Version:     4.0                                |
|   \\  /    A nd           | Web:         http://www.foam-extend.org         |
|    \\/     M anipulation  |                                                 |
\*---------------------------------------------------------------------------*/
FoamFile
{
    version     2.0;
    format      ascii;
    class       volScalarField;
    location    "10000";
    object      p;
}
// * * * * * * * * * * * * * * * * * * * * * * * * * * * * * * * * * * * * * //

dimensions      [0 2 -2 0 0 0 0];

internalField   nonuniform List<scalar> 
150
(
-1.311208e-09
-0.04999999
-7.682657e-05
-0.05007682
-0.0003884734
-0.05038847
-0.001224059
-0.05122405
-0.002908349
-0.05290834
-0.00576205
-0.05576204
-0.01007115
-0.06007115
-0.01606943
-0.06606943
-0.02392257
-0.07392257
-0.03368997
-0.08368996
-0.04530356
-0.09530355
-0.05861681
-0.1086168
-0.07346204
-0.123462
-0.089659
-0.139659
-0.1070124
-0.1570124
-0.125322
-0.175322
-0.1443923
-0.1943923
-0.1640416
-0.2140416
-0.1841058
-0.2341058
-0.204442
-0.254442
-0.224929
-0.274929
-0.2454667
-0.2954667
-0.2659746
-0.3159746
-0.2863898
-0.3363898
-0.3066643
-0.3566643
-0.3267623
-0.3767623
-0.3466578
-0.3966578
-0.3663319
-0.4163319
-0.3857706
-0.4357706
-0.4049627
-0.4549627
-0.4238983
-0.4738983
-0.4425668
-0.4925668
-0.4609562
-0.5109562
-0.4790519
-0.5290519
-0.4968363
-0.5468363
-0.5142877
-0.5642877
-0.5313786
-0.5813786
-0.5480732
-0.5980732
-0.5643254
-0.6143254
-0.5800773
-0.6300773
-0.5952578
-0.6452578
-0.6097819
-0.6597819
-0.6235502
-0.6735502
-0.6364509
-0.6864509
-0.648362
-0.698362
-0.6591576
-0.7091576
-0.6687148
-0.7187148
-0.6769222
-0.7269222
-0.6836866
-0.7336866
-0.6889367
-0.7389367
-0.6926222
-0.7426222
-0.6947113
-0.7447113
-0.6951846
-0.7451846
-0.6940314
-0.7440314
-0.691245
-0.741245
-0.6868195
-0.7368195
-0.680747
-0.730747
-0.6730132
-0.7230132
-0.6635925
-0.7135925
-0.6524379
-0.7024379
-0.6394534
-0.6894534
-0.6245438
-0.6745438
-0.6077976
-0.6577976
-0.589524
-0.639524
-0.5700993
-0.6200993
-0.5499101
-0.5999101
-0.5293867
-0.5793867
-0.5089741
-0.5589741
-0.4892713
-0.5392713
-0.4704342
-0.5204342
-0.4545012
-0.5045012
-0.4365903
-0.4865903
-0.436491
-0.486491
-0.3843838
-0.4343838
-0.513215
-0.563215
)
;

boundaryField
{
    leftandright
    {
        type            fan;
        patchType       cyclic;
        f               1(-0.1);
        value           nonuniform List<scalar> 
150
(
0.025
0.02492318
0.02461153
0.02377594
0.02209165
0.01923795
0.01492885
0.008930567
0.001077432
-0.008689965
-0.02030355
-0.0336168
-0.04846204
-0.064659
-0.08201245
-0.100322
-0.1193923
-0.1390416
-0.1591058
-0.179442
-0.199929
-0.2204667
-0.2409746
-0.2613898
-0.2816643
-0.3017623
-0.3216578
-0.3413319
-0.3607706
-0.3799627
-0.3988983
-0.4175668
-0.4359562
-0.4540519
-0.4718363
-0.4892877
-0.5063786
-0.5230732
-0.5393254
-0.5550773
-0.5702578
-0.5847819
-0.5985502
-0.6114509
-0.623362
-0.6341576
-0.6437148
-0.6519222
-0.6586866
-0.6639367
-0.6676222
-0.6697113
-0.6701846
-0.6690314
-0.666245
-0.6618195
-0.655747
-0.6480132
-0.6385925
-0.6274379
-0.6144534
-0.5995438
-0.5827976
-0.564524
-0.5450993
-0.5249101
-0.5043867
-0.4839741
-0.4642713
-0.4454342
-0.4295012
-0.4115903
-0.411491
-0.3593838
-0.488215
-0.075
-0.07507682
-0.07538847
-0.07622406
-0.07790835
-0.08076205
-0.08507115
-0.09106943
-0.09892257
-0.10869
-0.1203036
-0.1336168
-0.148462
-0.164659
-0.1820124
-0.200322
-0.2193923
-0.2390416
-0.2591058
-0.279442
-0.299929
-0.3204667
-0.3409746
-0.3613898
-0.3816643
-0.4017623
-0.4216578
-0.4413319
-0.4607706
-0.4799627
-0.4988983
-0.5175668
-0.5359562
-0.5540519
-0.5718363
-0.5892877
-0.6063786
-0.6230732
-0.6393254
-0.6550773
-0.6702578
-0.6847819
-0.6985502
-0.7114509
-0.723362
-0.7341576
-0.7437148
-0.7519222
-0.7586866
-0.7639367
-0.7676222
-0.7697113
-0.7701846
-0.7690314
-0.766245
-0.7618195
-0.755747
-0.7480132
-0.7385925
-0.7274379
-0.7144534
-0.6995438
-0.6827976
-0.664524
-0.6450993
-0.6249101
-0.6043867
-0.5839741
-0.5642713
-0.5454342
-0.5295012
-0.5115903
-0.511491
-0.4593838
-0.588215
)
;
    }
    wall
    {
        type            zeroGradient;
    }
    frontAndBack
    {
        type            empty;
    }
    middle
    {
        type            symmetryPlane;
        value           nonuniform List<scalar> 2(-0.513215 -0.563215);
    }
}


// ************************************************************************* //
