/*--------------------------------*- C++ -*----------------------------------*\
| =========                 |                                                 |
| \\      /  F ield         | foam-extend: Open Source CFD                    |
|  \\    /   O peration     | Version:     4.0                                |
|   \\  /    A nd           | Web:         http://www.foam-extend.org         |
|    \\/     M anipulation  |                                                 |
\*---------------------------------------------------------------------------*/
FoamFile
{
    version     2.0;
    format      ascii;
    class       surfaceScalarField;
    location    "10000";
    object      phi;
}
// * * * * * * * * * * * * * * * * * * * * * * * * * * * * * * * * * * * * * //

dimensions      [0 3 -1 0 0 0 0];

internalField   nonuniform List<scalar> 
223
(
3.183706e-05
-2.361643e-13
-1.973884e-14
0.0001020054
-1.996977e-13
-5.108638e-14
0.0001827886
-1.597812e-13
-9.395153e-14
0.0002753061
-1.275598e-13
-1.499107e-13
0.000380632
-1.05434e-13
-2.163764e-13
0.0004997372
-9.07785e-14
-2.882883e-13
0.0006334686
-7.887249e-14
-3.598464e-13
0.0007825798
-6.264337e-14
-4.233068e-13
0.0009477983
-3.198568e-14
-4.680257e-13
0.001129468
1.898423e-14
-4.875626e-13
0.001326644
8.641253e-14
-4.852182e-13
0.001538171
1.623146e-13
-4.687673e-13
0.001763671
2.402084e-13
-4.450401e-13
0.002002892
3.143146e-13
-4.204979e-13
0.002255724
3.793117e-13
-4.012663e-13
0.002522205
4.310201e-13
-3.923166e-13
0.002802518
4.668868e-13
-3.968524e-13
0.003096987
4.864513e-13
-4.157314e-13
0.003406073
4.912454e-13
-4.474562e-13
0.003730363
4.845064e-13
-4.884054e-13
0.004070569
4.707046e-13
-5.332687e-13
0.004427513
4.548966e-13
-5.75719e-13
0.004802125
4.419738e-13
-6.092414e-13
0.00519544
4.359461e-13
-6.279991e-13
0.005608586
4.393108e-13
-6.276697e-13
0.006042788
4.526105e-13
-6.061494e-13
0.006499363
4.742622e-13
-5.640006e-13
0.006979719
5.007265e-13
-5.045698e-13
0.007485354
5.270094e-13
-4.336962e-13
0.008017862
5.474803e-13
-3.59006e-13
0.008578932
5.568943e-13
-2.888373e-13
0.009170353
5.514592e-13
-2.308884e-13
0.009794014
5.297446e-13
-1.908027e-13
0.01045192
4.932367e-13
-1.70893e-13
0.01114617
4.461318e-13
-1.694771e-13
0.01187901
3.944997e-13
-1.808449e-13
0.01265278
3.451245e-13
-1.957699e-13
0.01346998
3.038414e-13
-2.028624e-13
0.01433323
2.736847e-13
-1.907626e-13
0.01524528
2.535697e-13
-1.505557e-13
0.01620906
2.380218e-13
-7.802121e-14
0.01722764
2.182068e-13
2.485396e-14
0.01830425
1.84268e-13
1.493965e-13
0.01944229
1.284812e-13
2.812039e-13
0.02064534
4.828185e-14
4.025786e-13
0.02191715
-5.191991e-14
4.961571e-13
0.02326166
-1.610373e-13
5.490335e-13
0.024683
-2.63914e-13
5.561514e-13
0.02618551
-3.455026e-13
5.216003e-13
0.02777373
-3.953004e-13
4.569729e-13
0.02945241
-4.104068e-13
3.773151e-13
0.03122655
-3.961723e-13
2.963484e-13
0.03310136
-3.641121e-13
2.230539e-13
0.0350823
-3.281342e-13
1.607459e-13
0.03717506
-3.001404e-13
1.088256e-13
0.03938554
-2.858791e-13
6.67951e-14
0.0417199
-2.815593e-13
3.896377e-14
0.04418448
-2.739283e-13
3.525132e-14
0.04678583
-2.467513e-13
6.270455e-14
0.04953068
-1.852284e-13
1.213829e-13
0.05242595
-8.438012e-14
1.990384e-13
0.0554787
3.944763e-14
2.705893e-13
0.05869605
1.462647e-13
3.086273e-13
0.06208502
1.943589e-13
2.877336e-13
0.06565225
1.674767e-13
2.001731e-13
0.06940393
7.600211e-14
6.866586e-14
0.07334563
-2.886395e-14
-4.538312e-14
0.0774821
-6.654487e-14
-6.858246e-14
0.08181723
-3.561086e-15
7.665809e-15
0.08635387
3.951463e-14
6.001347e-15
0.09109384
-1.1506e-13
-1.715665e-13
0.09603786
-2.081996e-13
-2.002767e-13
0.1011853
-2.183047e-13
-2.057753e-13
0.1065336
-1.513195e-13
-2.189799e-13
0.1120774
)
;

boundaryField
{
    leftandright
    {
        type            cyclic;
        value           nonuniform List<scalar> 
150
(
-3.183706e-05
-0.0001020054
-0.0001827886
-0.0002753061
-0.000380632
-0.0004997372
-0.0006334686
-0.0007825798
-0.0009477983
-0.001129468
-0.001326644
-0.001538171
-0.001763671
-0.002002892
-0.002255724
-0.002522205
-0.002802518
-0.003096987
-0.003406073
-0.003730363
-0.004070569
-0.004427513
-0.004802125
-0.00519544
-0.005608586
-0.006042788
-0.006499363
-0.006979719
-0.007485354
-0.008017862
-0.008578932
-0.009170353
-0.009794014
-0.01045192
-0.01114617
-0.01187901
-0.01265278
-0.01346998
-0.01433323
-0.01524528
-0.01620906
-0.01722764
-0.01830425
-0.01944229
-0.02064534
-0.02191715
-0.02326166
-0.024683
-0.02618551
-0.02777373
-0.02945241
-0.03122655
-0.03310136
-0.0350823
-0.03717506
-0.03938554
-0.0417199
-0.04418448
-0.04678583
-0.04953068
-0.05242595
-0.0554787
-0.05869605
-0.06208502
-0.06565225
-0.06940393
-0.07334563
-0.0774821
-0.08181723
-0.08635387
-0.09109384
-0.09603786
-0.1011853
-0.1065336
-0.1120774
3.183706e-05
0.0001020054
0.0001827886
0.0002753061
0.000380632
0.0004997372
0.0006334686
0.0007825798
0.0009477983
0.001129468
0.001326644
0.001538171
0.001763671
0.002002892
0.002255724
0.002522205
0.002802518
0.003096987
0.003406073
0.003730363
0.004070569
0.004427513
0.004802125
0.00519544
0.005608586
0.006042788
0.006499363
0.006979719
0.007485354
0.008017862
0.008578932
0.009170353
0.009794014
0.01045192
0.01114617
0.01187901
0.01265278
0.01346998
0.01433323
0.01524528
0.01620906
0.01722764
0.01830425
0.01944229
0.02064534
0.02191715
0.02326166
0.024683
0.02618551
0.02777373
0.02945241
0.03122655
0.03310136
0.0350823
0.03717506
0.03938554
0.0417199
0.04418448
0.04678583
0.04953068
0.05242595
0.0554787
0.05869605
0.06208502
0.06565225
0.06940393
0.07334563
0.0774821
0.08181723
0.08635387
0.09109384
0.09603786
0.1011853
0.1065336
0.1120774
)
;
    }
    wall
    {
        type            calculated;
        value           uniform 0;
    }
    frontAndBack
    {
        type            empty;
    }
    middle
    {
        type            symmetryPlane;
        value           uniform 0;
    }
}


// ************************************************************************* //
