/*--------------------------------*- C++ -*----------------------------------*\
| =========                 |                                                 |
| \\      /  F ield         | foam-extend: Open Source CFD                    |
|  \\    /   O peration     | Version:     4.0                                |
|   \\  /    A nd           | Web:         http://www.foam-extend.org         |
|    \\/     M anipulation  |                                                 |
\*---------------------------------------------------------------------------*/
FoamFile
{
    version     2.0;
    format      ascii;
    class       volScalarField;
    location    "10000";
    object      QR;
}
// * * * * * * * * * * * * * * * * * * * * * * * * * * * * * * * * * * * * * //

dimensions      [0 0 -1 0 0 0 0];

internalField   nonuniform List<scalar> 
150
(
410.2968
410.2968
409.5769
409.5769
408.3731
408.3731
406.1754
406.1754
402.4041
402.4041
396.5852
396.5852
388.5162
388.5162
378.3303
378.3303
365.8462
365.8462
349.5015
349.5015
328.6369
328.6369
305.3255
305.3255
281.4957
281.4957
257.9015
257.9015
235.0989
235.0989
213.4689
213.4689
193.2503
193.2503
174.5701
174.5701
157.4715
157.4715
141.9368
141.9368
127.906
127.906
115.2918
115.2918
103.9908
103.9908
93.89226
93.89226
84.88405
84.88405
76.85697
76.85697
69.70755
69.70755
63.33967
63.33967
57.6654
57.6654
52.60518
52.60518
48.08771
48.08771
44.04947
44.04946
40.43411
40.43411
37.19184
37.19184
34.27874
34.27874
31.65607
31.65607
29.28982
29.28982
27.1501
27.1501
25.21068
25.21068
23.44851
23.44851
21.84325
21.84325
20.37698
20.37698
19.03382
19.03382
17.79975
17.79975
16.66241
16.66241
15.61096
15.61096
14.63596
14.63596
13.72927
13.72927
12.88388
12.88388
12.09375
12.09375
11.35361
11.35361
10.65879
10.65879
10.00505
10.00505
9.388531
9.388531
8.805659
8.805659
8.253128
8.253128
7.727892
7.727892
7.227172
7.227172
6.748475
6.748475
6.289625
6.289625
5.848816
5.848817
5.424074
5.424074
5.012227
5.012227
4.609106
4.609106
4.210739
4.210739
3.813902
3.813902
3.416213
3.416213
3.016277
3.016277
2.613825
2.613825
2.209719
2.209719
1.805684
1.805684
1.403661
1.403661
1.005619
1.005619
0.6127665
0.6127668
0.2093768
0.2093771
)
;

boundaryField
{
    leftandright
    {
        type            cyclic;
        value           nonuniform List<scalar> 
150
(
410.2968
409.5769
408.3731
406.1754
402.4041
396.5852
388.5162
378.3303
365.8462
349.5015
328.6369
305.3255
281.4957
257.9015
235.0989
213.4689
193.2503
174.5701
157.4715
141.9368
127.906
115.2918
103.9908
93.89226
84.88405
76.85697
69.70755
63.33967
57.6654
52.60518
48.08771
44.04946
40.43411
37.19184
34.27874
31.65607
29.28982
27.1501
25.21068
23.44851
21.84325
20.37698
19.03382
17.79975
16.66241
15.61096
14.63596
13.72927
12.88388
12.09375
11.35361
10.65879
10.00505
9.388531
8.805659
8.253128
7.727892
7.227172
6.748475
6.289625
5.848816
5.424074
5.012227
4.609106
4.210739
3.813902
3.416213
3.016277
2.613825
2.209719
1.805684
1.403661
1.005619
0.6127667
0.2093769
410.2968
409.5769
408.3731
406.1754
402.4041
396.5852
388.5162
378.3303
365.8462
349.5015
328.6369
305.3255
281.4957
257.9015
235.0989
213.4689
193.2503
174.5701
157.4715
141.9368
127.906
115.2918
103.9908
93.89226
84.88405
76.85697
69.70755
63.33967
57.6654
52.60518
48.08771
44.04946
40.43411
37.19184
34.27874
31.65607
29.28982
27.1501
25.21068
23.44851
21.84325
20.37698
19.03382
17.79975
16.66241
15.61096
14.63596
13.72927
12.88388
12.09375
11.35361
10.65879
10.00505
9.388531
8.805659
8.253128
7.727892
7.227172
6.748475
6.289625
5.848816
5.424074
5.012227
4.609106
4.210739
3.813902
3.416213
3.016277
2.613825
2.209719
1.805684
1.403661
1.005619
0.6127667
0.2093769
)
;
    }
    wall
    {
        type            calculated;
        value           nonuniform List<scalar> 2(410.5902 410.5902);
    }
    frontAndBack
    {
        type            empty;
    }
    middle
    {
        type            symmetryPlane;
        value           nonuniform List<scalar> 2(0.4360859 0.4360859);
    }
}


// ************************************************************************* //
