/*--------------------------------*- C++ -*----------------------------------*\
| =========                 |                                                 |
| \\      /  F ield         | foam-extend: Open Source CFD                    |
|  \\    /   O peration     | Version:     4.0                                |
|   \\  /    A nd           | Web:         http://www.foam-extend.org         |
|    \\/     M anipulation  |                                                 |
\*---------------------------------------------------------------------------*/
FoamFile
{
    version     2.0;
    format      ascii;
    class       volSymmTensorField;
    location    "10000";
    object      tauP;
}
// * * * * * * * * * * * * * * * * * * * * * * * * * * * * * * * * * * * * * //

dimensions      [0 2 -2 0 0 0 0];

internalField   nonuniform List<symmTensor> 
150
(
(2.130611 0.06544629 0 1.077876e-05 0 5.04111e-06)
(2.130611 0.06544629 0 1.077875e-05 0 5.041126e-06)
(2.12764 0.06541202 0 1.21429e-05 0 4.985359e-06)
(2.12764 0.06541202 0 1.214289e-05 0 4.985365e-06)
(2.121728 0.06535785 0 1.640715e-05 0 5.183823e-06)
(2.121728 0.06535785 0 1.640715e-05 0 5.183825e-06)
(2.112001 0.0652802 0 2.589373e-05 0 5.457841e-06)
(2.112001 0.0652802 0 2.589373e-05 0 5.457841e-06)
(2.097246 0.06517568 0 4.441701e-05 0 5.481504e-06)
(2.097246 0.06517568 0 4.441701e-05 0 5.481503e-06)
(2.076649 0.06506242 0 7.785744e-05 0 5.120641e-06)
(2.076649 0.06506242 0 7.785745e-05 0 5.120639e-06)
(2.050296 0.0649915 0 0.0001339774 0 4.654742e-06)
(2.050296 0.0649915 0 0.0001339774 0 4.654741e-06)
(2.01887 0.06503908 0 0.00022209 0 4.688591e-06)
(2.01887 0.06503908 0 0.00022209 0 4.688589e-06)
(1.981681 0.06525481 0 0.0003533842 0 5.196569e-06)
(1.981681 0.06525481 0 0.0003533842 0 5.196568e-06)
(1.935513 0.06560959 0 0.0005452086 0 4.750166e-06)
(1.935513 0.0656096 0 0.0005452087 0 4.750165e-06)
(1.879636 0.06609964 0 0.0008209122 0 2.874686e-06)
(1.879636 0.06609964 0 0.0008209123 0 2.874685e-06)
(1.817179 0.06678155 0 0.00118356 0 3.496074e-07)
(1.817179 0.06678155 0 0.00118356 0 3.496081e-07)
(1.75369 0.06774431 0 0.001641803 0 -1.261522e-06)
(1.75369 0.06774431 0 0.001641803 0 -1.26152e-06)
(1.691648 0.06898519 0 0.002204387 0 -1.982933e-06)
(1.691648 0.06898519 0 0.002204388 0 -1.98293e-06)
(1.632002 0.07046506 0 0.002880317 0 -2.145952e-06)
(1.632002 0.07046506 0 0.002880317 0 -2.145947e-06)
(1.574967 0.07212936 0 0.003678463 0 -2.018777e-06)
(1.574967 0.07212936 0 0.003678464 0 -2.018771e-06)
(1.520395 0.07391394 0 0.004606652 0 -1.764833e-06)
(1.520395 0.07391394 0 0.004606653 0 -1.764826e-06)
(1.467948 0.07574703 0 0.005670573 0 -1.475418e-06)
(1.467948 0.07574703 0 0.005670574 0 -1.475409e-06)
(1.417199 0.07755135 0 0.006872709 0 -1.199814e-06)
(1.417199 0.07755136 0 0.00687271 0 -1.199804e-06)
(1.367701 0.07924733 0 0.0082114 0 -9.624547e-07)
(1.367701 0.07924734 0 0.008211402 0 -9.624429e-07)
(1.31904 0.08075693 0 0.009680146 0 -7.721869e-07)
(1.319041 0.08075693 0 0.009680148 0 -7.721737e-07)
(1.270865 0.08200761 0 0.01126719 0 -6.281328e-07)
(1.270865 0.08200761 0 0.01126719 0 -6.281182e-07)
(1.222902 0.08293584 0 0.01295543 0 -5.240139e-07)
(1.222902 0.08293585 0 0.01295543 0 -5.239979e-07)
(1.174958 0.08348968 0 0.01472263 0 -4.513847e-07)
(1.174958 0.08348969 0 0.01472263 0 -4.513673e-07)
(1.126912 0.08363036 0 0.01654194 0 -4.018162e-07)
(1.126912 0.08363036 0 0.01654194 0 -4.017974e-07)
(1.078701 0.08333274 0 0.01838253 0 -3.681178e-07)
(1.078701 0.08333275 0 0.01838254 0 -3.680977e-07)
(1.030307 0.08258499 0 0.02021052 0 -3.44804e-07)
(1.030307 0.08258499 0 0.02021052 0 -3.447825e-07)
(0.981743 0.08138745 0 0.02198985 0 -3.280649e-07)
(0.981743 0.08138745 0 0.02198985 0 -3.28042e-07)
(0.9330442 0.07975122 0 0.02368329 0 -3.154807e-07)
(0.9330442 0.07975122 0 0.02368329 0 -3.154564e-07)
(0.8842599 0.07769641 0 0.02525348 0 -3.056541e-07)
(0.8842599 0.07769641 0 0.02525348 0 -3.056284e-07)
(0.8354488 0.0752505 0 0.02666391 0 -2.978659e-07)
(0.8354487 0.07525049 0 0.02666391 0 -2.978388e-07)
(0.7866775 0.07244664 0 0.02787989 0 -2.918005e-07)
(0.7866774 0.07244664 0 0.02787989 0 -2.917719e-07)
(0.7380203 0.06932234 0 0.02886958 0 -2.87362e-07)
(0.7380202 0.06932233 0 0.02886958 0 -2.873321e-07)
(0.6895608 0.06591813 0 0.02960486 0 -2.846032e-07)
(0.6895607 0.06591813 0 0.02960486 0 -2.845719e-07)
(0.6413946 0.06227678 0 0.03006233 0 -2.836503e-07)
(0.6413945 0.06227677 0 0.03006232 0 -2.836177e-07)
(0.5936347 0.05844265 0 0.03022425 0 -2.843157e-07)
(0.5936346 0.05844264 0 0.03022425 0 -2.84282e-07)
(0.5464138 0.05446112 0 0.03007925 0 -2.865166e-07)
(0.5464136 0.05446111 0 0.03007925 0 -2.864819e-07)
(0.4998892 0.0503783 0 0.02962304 0 -2.90181e-07)
(0.4998891 0.05037829 0 0.02962303 0 -2.901454e-07)
(0.454249 0.04624119 0 0.02885934 0 -2.951156e-07)
(0.4542489 0.04624118 0 0.02885933 0 -2.950795e-07)
(0.4097177 0.04209787 0 0.02780087 0 -3.009348e-07)
(0.4097176 0.04209785 0 0.02780086 0 -3.008985e-07)
(0.3665615 0.03799779 0 0.02647031 0 -3.069647e-07)
(0.3665613 0.03799777 0 0.0264703 0 -3.069286e-07)
(0.3250899 0.03399189 0 0.02490114 0 -3.121287e-07)
(0.3250897 0.03399187 0 0.02490113 0 -3.120933e-07)
(0.2856522 0.03013214 0 0.02313794 0 -3.148692e-07)
(0.285652 0.03013213 0 0.02313793 0 -3.148351e-07)
(0.2486232 0.02647025 0 0.02123568 0 -3.132103e-07)
(0.2486231 0.02647024 0 0.02123566 0 -3.13178e-07)
(0.2143757 0.02305501 0 0.01925735 0 -3.050803e-07)
(0.2143756 0.02305499 0 0.01925734 0 -3.050505e-07)
(0.1832385 0.01992837 0 0.01726959 0 -2.889308e-07)
(0.1832384 0.01992836 0 0.01726958 0 -2.88904e-07)
(0.1554471 0.01712081 0 0.01533638 0 -2.644751e-07)
(0.1554469 0.0171208 0 0.01533637 0 -2.644518e-07)
(0.1310993 0.01464726 0 0.01351214 0 -2.331408e-07)
(0.1310992 0.01464725 0 0.01351213 0 -2.331211e-07)
(0.1101342 0.01250532 0 0.01183608 0 -1.978472e-07)
(0.1101341 0.01250531 0 0.01183607 0 -1.978311e-07)
(0.09234193 0.01067668 0 0.01032977 0 -1.621172e-07)
(0.09234187 0.01067668 0 0.01032976 0 -1.621044e-07)
(0.07740378 0.009131338 0 0.008998344 0 -1.290049e-07)
(0.07740374 0.009131334 0 0.008998339 0 -1.289949e-07)
(0.06494476 0.007833068 0 0.007834467 0 -1.00413e-07)
(0.06494473 0.007833065 0 0.007834463 0 -1.004053e-07)
(0.05458253 0.006744498 0 0.006823199 0 -7.701221e-08)
(0.05458251 0.006744496 0 0.006823196 0 -7.700641e-08)
(0.04596168 0.005830621 0 0.005946285 0 -5.857456e-08)
(0.04596166 0.005830619 0 0.005946283 0 -5.857017e-08)
(0.03877139 0.005060659 0 0.005185129 0 -4.440529e-08)
(0.03877138 0.005060658 0 0.005185128 0 -4.440198e-08)
(0.03275059 0.004408633 0 0.004522487 0 -3.367589e-08)
(0.03275058 0.004408632 0 0.004522485 0 -3.367337e-08)
(0.02768535 0.003853157 0 0.0039432 0 -2.561081e-08)
(0.02768534 0.003853157 0 0.003943199 0 -2.560889e-08)
(0.02340299 0.003376894 0 0.003434368 0 -1.956166e-08)
(0.02340298 0.003376894 0 0.003434368 0 -1.956019e-08)
(0.01976518 0.002965891 0 0.002985206 0 -1.502925e-08)
(0.01976518 0.002965891 0 0.002985206 0 -1.502812e-08)
(0.01666216 0.002609031 0 0.002586942 0 -1.16058e-08)
(0.01666216 0.00260903 0 0.002586941 0 -1.160491e-08)
(0.01400584 0.002297365 0 0.00223227 0 -8.953154e-09)
(0.01400584 0.002297365 0 0.00223227 0 -8.952416e-09)
(0.01172113 0.002023237 0 0.001914363 0 -6.960852e-09)
(0.01172113 0.002023237 0 0.001914363 0 -6.96022e-09)
(0.009749293 0.001780392 0 0.001628791 0 -5.44349e-09)
(0.009749293 0.001780392 0 0.001628791 0 -5.442936e-09)
(0.008043057 0.00156348 0 0.001372569 0 -4.248692e-09)
(0.008043057 0.00156348 0 0.001372568 0 -4.248192e-09)
(0.006562138 0.001367824 0 0.001142583 0 -3.335245e-09)
(0.006562137 0.001367824 0 0.001142583 0 -3.334811e-09)
(0.005275581 0.001189706 0 0.000936365 0 -2.64001e-09)
(0.00527558 0.001189706 0 0.0009363649 0 -2.639675e-09)
(0.004160704 0.001026268 0 0.0007522739 0 -2.08975e-09)
(0.004160704 0.001026268 0 0.0007522739 0 -2.089523e-09)
(0.003199131 0.0008752071 0 0.0005887685 0 -1.696853e-09)
(0.003199131 0.0008752071 0 0.0005887685 0 -1.696704e-09)
(0.002382298 0.0007350977 0 0.0004463329 0 -1.271234e-09)
(0.002382298 0.0007350978 0 0.0004463329 0 -1.271096e-09)
(0.001686772 0.0006039403 0 0.0003204217 0 -1.270933e-09)
(0.001686772 0.0006039403 0 0.0003204217 0 -1.27078e-09)
(0.001149602 0.0004827743 0 0.0002245709 0 -2.793627e-10)
(0.001149602 0.0004827743 0 0.0002245709 0 -2.792109e-10)
(0.0006226867 0.0003652438 0 0.0001146801 0 -2.339729e-09)
(0.0006226867 0.0003652438 0 0.0001146801 0 -2.339871e-09)
(0.0005476027 0.0002631799 0 0.0001319074 0 2.005894e-09)
(0.0005476027 0.0002631799 0 0.0001319074 0 2.005905e-09)
(-0.0001868968 0.0001499868 0 -7.531359e-05 0 -2.935471e-09)
(-0.0001868967 0.0001499869 0 -7.531356e-05 0 -2.935463e-09)
(0.0001946142 5.23755e-05 0 6.068302e-05 0 7.266485e-10)
(0.0001946143 5.237559e-05 0 6.068303e-05 0 7.266958e-10)
)
;

boundaryField
{
    leftandright
    {
        type            cyclic;
        value           nonuniform List<symmTensor> 
150
(
(2.130611 0.06544629 0 1.077876e-05 0 5.041118e-06)
(2.12764 0.06541202 0 1.21429e-05 0 4.985362e-06)
(2.121728 0.06535785 0 1.640715e-05 0 5.183824e-06)
(2.112001 0.0652802 0 2.589373e-05 0 5.457841e-06)
(2.097246 0.06517568 0 4.441701e-05 0 5.481504e-06)
(2.076649 0.06506242 0 7.785744e-05 0 5.12064e-06)
(2.050296 0.0649915 0 0.0001339774 0 4.654741e-06)
(2.01887 0.06503908 0 0.00022209 0 4.68859e-06)
(1.981681 0.06525481 0 0.0003533842 0 5.196569e-06)
(1.935513 0.0656096 0 0.0005452087 0 4.750166e-06)
(1.879636 0.06609964 0 0.0008209123 0 2.874685e-06)
(1.817179 0.06678155 0 0.00118356 0 3.496077e-07)
(1.75369 0.06774431 0 0.001641803 0 -1.261521e-06)
(1.691648 0.06898519 0 0.002204387 0 -1.982931e-06)
(1.632002 0.07046506 0 0.002880317 0 -2.145949e-06)
(1.574967 0.07212936 0 0.003678464 0 -2.018774e-06)
(1.520395 0.07391394 0 0.004606652 0 -1.76483e-06)
(1.467948 0.07574703 0 0.005670573 0 -1.475413e-06)
(1.417199 0.07755136 0 0.006872709 0 -1.199809e-06)
(1.367701 0.07924733 0 0.008211401 0 -9.624488e-07)
(1.31904 0.08075693 0 0.009680147 0 -7.721803e-07)
(1.270865 0.08200761 0 0.01126719 0 -6.281255e-07)
(1.222902 0.08293584 0 0.01295543 0 -5.240059e-07)
(1.174958 0.08348969 0 0.01472263 0 -4.51376e-07)
(1.126912 0.08363036 0 0.01654194 0 -4.018068e-07)
(1.078701 0.08333274 0 0.01838253 0 -3.681078e-07)
(1.030307 0.08258499 0 0.02021052 0 -3.447933e-07)
(0.981743 0.08138745 0 0.02198985 0 -3.280535e-07)
(0.9330442 0.07975122 0 0.02368329 0 -3.154686e-07)
(0.8842599 0.07769641 0 0.02525348 0 -3.056413e-07)
(0.8354488 0.07525049 0 0.02666391 0 -2.978523e-07)
(0.7866774 0.07244664 0 0.02787989 0 -2.917862e-07)
(0.7380203 0.06932234 0 0.02886958 0 -2.87347e-07)
(0.6895607 0.06591813 0 0.02960486 0 -2.845876e-07)
(0.6413945 0.06227677 0 0.03006233 0 -2.83634e-07)
(0.5936346 0.05844264 0 0.03022425 0 -2.842988e-07)
(0.5464137 0.05446111 0 0.03007925 0 -2.864993e-07)
(0.4998891 0.0503783 0 0.02962304 0 -2.901632e-07)
(0.4542489 0.04624118 0 0.02885934 0 -2.950976e-07)
(0.4097176 0.04209786 0 0.02780086 0 -3.009166e-07)
(0.3665614 0.03799778 0 0.0264703 0 -3.069466e-07)
(0.3250898 0.03399188 0 0.02490113 0 -3.12111e-07)
(0.2856521 0.03013214 0 0.02313793 0 -3.148521e-07)
(0.2486232 0.02647024 0 0.02123567 0 -3.131942e-07)
(0.2143756 0.023055 0 0.01925734 0 -3.050654e-07)
(0.1832384 0.01992837 0 0.01726958 0 -2.889174e-07)
(0.155447 0.0171208 0 0.01533638 0 -2.644634e-07)
(0.1310993 0.01464725 0 0.01351213 0 -2.331309e-07)
(0.1101341 0.01250532 0 0.01183607 0 -1.978392e-07)
(0.0923419 0.01067668 0 0.01032976 0 -1.621108e-07)
(0.07740376 0.009131336 0 0.008998341 0 -1.289999e-07)
(0.06494474 0.007833067 0 0.007834465 0 -1.004091e-07)
(0.05458252 0.006744497 0 0.006823198 0 -7.700931e-08)
(0.04596167 0.00583062 0 0.005946284 0 -5.857236e-08)
(0.03877139 0.005060659 0 0.005185129 0 -4.440364e-08)
(0.03275059 0.004408632 0 0.004522486 0 -3.367463e-08)
(0.02768535 0.003853157 0 0.0039432 0 -2.560985e-08)
(0.02340299 0.003376894 0 0.003434368 0 -1.956092e-08)
(0.01976518 0.002965891 0 0.002985206 0 -1.502869e-08)
(0.01666216 0.00260903 0 0.002586942 0 -1.160535e-08)
(0.01400584 0.002297365 0 0.00223227 0 -8.952785e-09)
(0.01172113 0.002023237 0 0.001914363 0 -6.960536e-09)
(0.009749293 0.001780392 0 0.001628791 0 -5.443213e-09)
(0.008043057 0.00156348 0 0.001372569 0 -4.248442e-09)
(0.006562138 0.001367824 0 0.001142583 0 -3.335028e-09)
(0.00527558 0.001189706 0 0.000936365 0 -2.639843e-09)
(0.004160704 0.001026268 0 0.0007522739 0 -2.089637e-09)
(0.003199131 0.0008752071 0 0.0005887685 0 -1.696778e-09)
(0.002382298 0.0007350978 0 0.0004463329 0 -1.271165e-09)
(0.001686772 0.0006039403 0 0.0003204217 0 -1.270856e-09)
(0.001149602 0.0004827743 0 0.0002245709 0 -2.792868e-10)
(0.0006226867 0.0003652438 0 0.0001146801 0 -2.3398e-09)
(0.0005476027 0.0002631799 0 0.0001319074 0 2.005899e-09)
(-0.0001868967 0.0001499868 0 -7.531357e-05 0 -2.935467e-09)
(0.0001946143 5.237554e-05 0 6.068302e-05 0 7.266721e-10)
(2.130611 0.06544629 0 1.077876e-05 0 5.041118e-06)
(2.12764 0.06541202 0 1.21429e-05 0 4.985362e-06)
(2.121728 0.06535785 0 1.640715e-05 0 5.183824e-06)
(2.112001 0.0652802 0 2.589373e-05 0 5.457841e-06)
(2.097246 0.06517568 0 4.441701e-05 0 5.481504e-06)
(2.076649 0.06506242 0 7.785744e-05 0 5.12064e-06)
(2.050296 0.0649915 0 0.0001339774 0 4.654741e-06)
(2.01887 0.06503908 0 0.00022209 0 4.68859e-06)
(1.981681 0.06525481 0 0.0003533842 0 5.196569e-06)
(1.935513 0.0656096 0 0.0005452087 0 4.750166e-06)
(1.879636 0.06609964 0 0.0008209123 0 2.874685e-06)
(1.817179 0.06678155 0 0.00118356 0 3.496077e-07)
(1.75369 0.06774431 0 0.001641803 0 -1.261521e-06)
(1.691648 0.06898519 0 0.002204387 0 -1.982931e-06)
(1.632002 0.07046506 0 0.002880317 0 -2.145949e-06)
(1.574967 0.07212936 0 0.003678464 0 -2.018774e-06)
(1.520395 0.07391394 0 0.004606652 0 -1.76483e-06)
(1.467948 0.07574703 0 0.005670573 0 -1.475413e-06)
(1.417199 0.07755136 0 0.006872709 0 -1.199809e-06)
(1.367701 0.07924733 0 0.008211401 0 -9.624488e-07)
(1.31904 0.08075693 0 0.009680147 0 -7.721803e-07)
(1.270865 0.08200761 0 0.01126719 0 -6.281255e-07)
(1.222902 0.08293584 0 0.01295543 0 -5.240059e-07)
(1.174958 0.08348969 0 0.01472263 0 -4.51376e-07)
(1.126912 0.08363036 0 0.01654194 0 -4.018068e-07)
(1.078701 0.08333274 0 0.01838253 0 -3.681078e-07)
(1.030307 0.08258499 0 0.02021052 0 -3.447933e-07)
(0.981743 0.08138745 0 0.02198985 0 -3.280535e-07)
(0.9330442 0.07975122 0 0.02368329 0 -3.154686e-07)
(0.8842599 0.07769641 0 0.02525348 0 -3.056413e-07)
(0.8354488 0.07525049 0 0.02666391 0 -2.978523e-07)
(0.7866774 0.07244664 0 0.02787989 0 -2.917862e-07)
(0.7380203 0.06932234 0 0.02886958 0 -2.87347e-07)
(0.6895607 0.06591813 0 0.02960486 0 -2.845876e-07)
(0.6413945 0.06227677 0 0.03006233 0 -2.83634e-07)
(0.5936346 0.05844264 0 0.03022425 0 -2.842988e-07)
(0.5464137 0.05446111 0 0.03007925 0 -2.864993e-07)
(0.4998891 0.0503783 0 0.02962304 0 -2.901632e-07)
(0.4542489 0.04624118 0 0.02885934 0 -2.950976e-07)
(0.4097176 0.04209786 0 0.02780086 0 -3.009166e-07)
(0.3665614 0.03799778 0 0.0264703 0 -3.069466e-07)
(0.3250898 0.03399188 0 0.02490113 0 -3.12111e-07)
(0.2856521 0.03013214 0 0.02313793 0 -3.148521e-07)
(0.2486232 0.02647024 0 0.02123567 0 -3.131942e-07)
(0.2143756 0.023055 0 0.01925734 0 -3.050654e-07)
(0.1832384 0.01992837 0 0.01726958 0 -2.889174e-07)
(0.155447 0.0171208 0 0.01533638 0 -2.644634e-07)
(0.1310993 0.01464725 0 0.01351213 0 -2.331309e-07)
(0.1101341 0.01250532 0 0.01183607 0 -1.978392e-07)
(0.0923419 0.01067668 0 0.01032976 0 -1.621108e-07)
(0.07740376 0.009131336 0 0.008998341 0 -1.289999e-07)
(0.06494474 0.007833067 0 0.007834465 0 -1.004091e-07)
(0.05458252 0.006744497 0 0.006823198 0 -7.700931e-08)
(0.04596167 0.00583062 0 0.005946284 0 -5.857236e-08)
(0.03877139 0.005060659 0 0.005185129 0 -4.440364e-08)
(0.03275059 0.004408632 0 0.004522486 0 -3.367463e-08)
(0.02768535 0.003853157 0 0.0039432 0 -2.560985e-08)
(0.02340299 0.003376894 0 0.003434368 0 -1.956092e-08)
(0.01976518 0.002965891 0 0.002985206 0 -1.502869e-08)
(0.01666216 0.00260903 0 0.002586942 0 -1.160535e-08)
(0.01400584 0.002297365 0 0.00223227 0 -8.952785e-09)
(0.01172113 0.002023237 0 0.001914363 0 -6.960536e-09)
(0.009749293 0.001780392 0 0.001628791 0 -5.443213e-09)
(0.008043057 0.00156348 0 0.001372569 0 -4.248442e-09)
(0.006562138 0.001367824 0 0.001142583 0 -3.335028e-09)
(0.00527558 0.001189706 0 0.000936365 0 -2.639843e-09)
(0.004160704 0.001026268 0 0.0007522739 0 -2.089637e-09)
(0.003199131 0.0008752071 0 0.0005887685 0 -1.696778e-09)
(0.002382298 0.0007350978 0 0.0004463329 0 -1.271165e-09)
(0.001686772 0.0006039403 0 0.0003204217 0 -1.270856e-09)
(0.001149602 0.0004827743 0 0.0002245709 0 -2.792868e-10)
(0.0006226867 0.0003652438 0 0.0001146801 0 -2.3398e-09)
(0.0005476027 0.0002631799 0 0.0001319074 0 2.005899e-09)
(-0.0001868967 0.0001499868 0 -7.531357e-05 0 -2.935467e-09)
(0.0001946143 5.237554e-05 0 6.068302e-05 0 7.266721e-10)
)
;
    }
    wall
    {
        type            calculated;
        value           nonuniform List<symmTensor> 2((2.130611 0.06544629 0 1.077876e-05 0 5.04111e-06) (2.130611 0.06544629 0 1.077875e-05 0 5.041126e-06));
    }
    frontAndBack
    {
        type            empty;
    }
    middle
    {
        type            symmetryPlane;
        value           nonuniform List<symmTensor> 2((0.0001946142 0 0 6.068302e-05 0 7.266485e-10) (0.0001946143 0 0 6.068303e-05 0 7.266958e-10));
    }
}


// ************************************************************************* //
