/*--------------------------------*- C++ -*----------------------------------*\
| =========                 |                                                 |
| \\      /  F ield         | foam-extend: Open Source CFD                    |
|  \\    /   O peration     | Version:     4.0                                |
|   \\  /    A nd           | Web:         http://www.foam-extend.org         |
|    \\/     M anipulation  |                                                 |
\*---------------------------------------------------------------------------*/
FoamFile
{
    version     2.0;
    format      ascii;
    class       regIOobject;
    location    "1000/uniform";
    object      profilingInfo;
}
// * * * * * * * * * * * * * * * * * * * * * * * * * * * * * * * * * * * * * //

profilingInfo
(

    {
        id              24;
        parentId        22;
        description     "Foam::Time::writeObject - outputTime";
        calls           1;
        totalTime       0.009875;
        childTime       0;
        onStack         1;
    }

    {
        id              22;
        parentId        1;
        description     "Foam::Time::writeObject";
        calls           1000;
        totalTime       0.011484;
        childTime       0.009875;
        onStack         1;
    }

    {
        id              1;
        description     "application::main";
        calls           1;
        totalTime       6.401463;
        childTime       1.199648;
        onStack         1;
    }

    {
        id              3;
        parentId        2;
        description     "functionObjectList::read";
        calls           1;
        totalTime       5e-06;
        childTime       0;
        onStack         0;
    }

    {
        id              23;
        parentId        1;
        description     "functionObjects_.execute()";
        calls           999;
        totalTime       0.001062;
        childTime       0;
        onStack         0;
    }

    {
        id              2;
        parentId        1;
        description     "functionObjects_.start()";
        calls           1;
        totalTime       2e-05;
        childTime       5e-06;
        onStack         0;
    }

    {
        id              17;
        parentId        1;
        description     "fvMatrix::solve_C";
        calls           2000;
        totalTime       0.307557;
        childTime       0.102616;
        onStack         0;
    }

    {
        id              4;
        parentId        1;
        description     "fvMatrix::solve_U";
        calls           2000;
        totalTime       0.219701;
        childTime       0.064623;
        onStack         0;
    }

    {
        id              9;
        parentId        1;
        description     "fvMatrix::solve_epsilon";
        calls           2000;
        totalTime       0.134828;
        childTime       0.035446;
        onStack         0;
    }

    {
        id              13;
        parentId        1;
        description     "fvMatrix::solve_f";
        calls           2000;
        totalTime       0.131174;
        childTime       0.051507;
        onStack         0;
    }

    {
        id              11;
        parentId        1;
        description     "fvMatrix::solve_k";
        calls           2000;
        totalTime       0.110991;
        childTime       0.031501;
        onStack         0;
    }

    {
        id              7;
        parentId        1;
        description     "fvMatrix::solve_p";
        calls           2000;
        totalTime       0.172943;
        childTime       0.090485;
        onStack         0;
    }

    {
        id              15;
        parentId        1;
        description     "fvMatrix::solve_v2";
        calls           2000;
        totalTime       0.109888;
        childTime       0.031873;
        onStack         0;
    }

    {
        id              18;
        parentId        17;
        description     "lduMatrix::solver_Cxx";
        calls           2000;
        totalTime       0.029498;
        childTime       0;
        onStack         0;
    }

    {
        id              19;
        parentId        17;
        description     "lduMatrix::solver_Cxy";
        calls           2000;
        totalTime       0.025831;
        childTime       0;
        onStack         0;
    }

    {
        id              20;
        parentId        17;
        description     "lduMatrix::solver_Cyy";
        calls           2000;
        totalTime       0.026034;
        childTime       0;
        onStack         0;
    }

    {
        id              21;
        parentId        17;
        description     "lduMatrix::solver_Czz";
        calls           2000;
        totalTime       0.021253;
        childTime       0;
        onStack         0;
    }

    {
        id              5;
        parentId        4;
        description     "lduMatrix::solver_Ux";
        calls           2000;
        totalTime       0.037486;
        childTime       0;
        onStack         0;
    }

    {
        id              6;
        parentId        4;
        description     "lduMatrix::solver_Uy";
        calls           2000;
        totalTime       0.027137;
        childTime       0;
        onStack         0;
    }

    {
        id              10;
        parentId        9;
        description     "lduMatrix::solver_epsilon";
        calls           2000;
        totalTime       0.035446;
        childTime       0;
        onStack         0;
    }

    {
        id              14;
        parentId        13;
        description     "lduMatrix::solver_f";
        calls           2000;
        totalTime       0.051507;
        childTime       0;
        onStack         0;
    }

    {
        id              12;
        parentId        11;
        description     "lduMatrix::solver_k";
        calls           2000;
        totalTime       0.031501;
        childTime       0;
        onStack         0;
    }

    {
        id              8;
        parentId        7;
        description     "lduMatrix::solver_p";
        calls           2000;
        totalTime       0.090485;
        childTime       0;
        onStack         0;
    }

    {
        id              16;
        parentId        15;
        description     "lduMatrix::solver_v2";
        calls           2000;
        totalTime       0.031873;
        childTime       0;
        onStack         0;
    }
);


// ************************************************************************* //
