/*--------------------------------*- C++ -*----------------------------------*\
| =========                 |                                                 |
| \\      /  F ield         | foam-extend: Open Source CFD                    |
|  \\    /   O peration     | Version:     4.0                                |
|   \\  /    A nd           | Web:         http://www.foam-extend.org         |
|    \\/     M anipulation  |                                                 |
\*---------------------------------------------------------------------------*/
FoamFile
{
    version     2.0;
    format      ascii;
    class       volSymmTensorField;
    location    "10000";
    object      DiffC;
}
// * * * * * * * * * * * * * * * * * * * * * * * * * * * * * * * * * * * * * //

dimensions      [0 0 -1 0 0 0 0];

internalField   nonuniform List<symmTensor> 
150
(
(-18.4234 -0.003545822 0 0.0340113 0 0.01995374)
(-18.42342 -0.003545661 0 0.03401135 0 0.01995367)
(-15.7158 0.1224057 0 0.04285964 0 0.01977263)
(-15.71579 0.1224063 0 0.04285966 0 0.01977267)
(-18.0177 0.1574245 0 0.060792 0 0.02055732)
(-18.0177 0.1574243 0 0.06079197 0 0.02055734)
(-21.23045 0.2130206 0 0.08699535 0 0.02164142)
(-21.23045 0.2130204 0 0.08699534 0 0.02164143)
(-21.92321 0.36839 0 0.118821 0 0.02173759)
(-21.92321 0.36839 0 0.118821 0 0.0217376)
(-18.85982 0.6257353 0 0.1505702 0 0.02031586)
(-18.85982 0.6257354 0 0.1505702 0 0.02031586)
(-14.18408 0.9253198 0 0.180685 0 0.01848026)
(-14.18408 0.92532 0 0.180685 0 0.01848026)
(-14.7818 1.102688 0 0.217891 0 0.01861979)
(-14.7818 1.102689 0 0.217891 0 0.01861979)
(-22.80001 1.013992 0 0.2844645 0 0.02063337)
(-22.8 1.013992 0 0.2844645 0 0.02063337)
(-22.62394 0.928413 0 0.3554357 0 0.01887854)
(-22.62394 0.9284132 0 0.3554358 0 0.01887854)
(-12.68061 0.9125537 0 0.3210767 0 0.01148046)
(-12.68061 0.9125539 0 0.3210767 0 0.01148046)
(1.446135 0.8933082 0 0.3001268 0 0.001518277)
(1.446137 0.8933083 0 0.3001269 0 0.001518276)
(6.759778 0.6818651 0 0.2861592 0 -0.004831931)
(6.759778 0.6818651 0 0.2861592 0 -0.004831931)
(8.147201 0.4442254 0 0.2749628 0 -0.00766598)
(8.1472 0.4442254 0 0.2749628 0 -0.007665979)
(7.903452 0.2257476 0 0.2634207 0 -0.008292818)
(7.903449 0.2257476 0 0.2634208 0 -0.008292815)
(7.007276 0.03231068 0 0.2489378 0 -0.007772092)
(7.007273 0.03231058 0 0.2489379 0 -0.007772089)
(5.890615 -0.1365013 0 0.2298756 0 -0.006749617)
(5.890611 -0.1365015 0 0.2298756 0 -0.006749613)
(4.770866 -0.2797203 0 0.205533 0 -0.005586322)
(4.770862 -0.2797205 0 0.205533 0 -0.005586318)
(3.766405 -0.3951741 0 0.1760204 0 -0.004477179)
(3.766401 -0.3951744 0 0.1760204 0 -0.004477174)
(2.934268 -0.4810495 0 0.1421011 0 -0.003518978)
(2.934264 -0.4810498 0 0.142101 0 -0.003518974)
(2.288337 -0.5369692 0 0.1050146 0 -0.002746925)
(2.288333 -0.5369695 0 0.1050146 0 -0.002746921)
(1.814195 -0.5643777 0 0.06628071 0 -0.002157762)
(1.814191 -0.564378 0 0.06628066 0 -0.002157758)
(1.48235 -0.566391 0 0.02750301 0 -0.001726858)
(1.482347 -0.5663913 0 0.02750294 0 -0.001726854)
(1.258634 -0.5473227 0 -0.009801944 0 -0.001420978)
(1.258631 -0.547323 0 -0.009802032 0 -0.001420975)
(1.11107 -0.5120855 0 -0.04433064 0 -0.001206915)
(1.111067 -0.5120858 0 -0.04433074 0 -0.001206913)
(1.013435 -0.4656255 0 -0.07506649 0 -0.00105633)
(1.013432 -0.4656258 0 -0.0750666 0 -0.001056328)
(0.9463155 -0.412482 0 -0.1013056 0 -0.0009476)
(0.9463137 -0.4124823 0 -0.1013058 0 -0.0009475985)
(0.8966106 -0.3565102 0 -0.1226454 0 -0.0008657184)
(0.8966092 -0.3565104 0 -0.1226455 0 -0.0008657176)
(0.8562979 -0.3007561 0 -0.1389485 0 -0.0008011727)
(0.856297 -0.3007563 0 -0.1389486 0 -0.0008011725)
(0.8210333 -0.247452 0 -0.1502949 0 -0.0007485029)
(0.821033 -0.2474521 0 -0.150295 0 -0.0007485032)
(0.7888947 -0.1980902 0 -0.1569304 0 -0.0007049471)
(0.7888949 -0.1980903 0 -0.1569305 0 -0.0007049482)
(0.7594024 -0.1535409 0 -0.1592186 0 -0.0006693669)
(0.7594032 -0.1535409 0 -0.1592187 0 -0.0006693686)
(0.7328561 -0.1141803 0 -0.1575982 0 -0.0006415251)
(0.7328574 -0.1141803 0 -0.1575983 0 -0.0006415275)
(0.7101235 -0.07998623 0 -0.1525283 0 -0.000621814)
(0.7101254 -0.07998612 0 -0.1525283 0 -0.0006218172)
(0.6924838 -0.05065351 0 -0.144461 0 -0.0006109688)
(0.6924863 -0.05065333 0 -0.144461 0 -0.0006109727)
(0.6799194 -0.02584663 0 -0.1339652 0 -0.0006085496)
(0.6799225 -0.02584638 0 -0.1339651 0 -0.0006085544)
(0.6729843 -0.005049807 0 -0.1215079 0 -0.0006146019)
(0.672988 -0.005049498 0 -0.1215078 0 -0.0006146075)
(0.6722491 0.01232363 0 -0.107459 0 -0.0006293006)
(0.6722535 0.01232401 0 -0.1074588 0 -0.0006293071)
(0.6778608 0.02682948 0 -0.09213389 0 -0.0006524453)
(0.6778658 0.02682992 0 -0.09213365 0 -0.0006524526)
(0.6893536 0.03894381 0 -0.07582361 0 -0.0006831803)
(0.6893592 0.03894431 0 -0.0758233 0 -0.0006831883)
(0.7053386 0.04901401 0 -0.05884063 0 -0.0007196001)
(0.7053447 0.04901457 0 -0.05884025 0 -0.0007196088)
(0.7230927 0.05720878 0 -0.0415836 0 -0.0007582347)
(0.7230992 0.05720937 0 -0.04158316 0 -0.0007582439)
(0.7382203 0.06348151 0 -0.02460884 0 -0.0007936105)
(0.738227 0.06348213 0 -0.02460835 0 -0.0007936199)
(0.7447189 0.06757757 0 -0.008676465 0 -0.0008182806)
(0.7447255 0.06757817 0 -0.008675938 0 -0.0008182898)
(0.7358487 0.06912303 0 0.005281952 0 -0.0008238138)
(0.7358548 0.06912359 0 0.00528248 0 -0.0008238224)
(0.7059845 0.06781069 0 0.0163215 0 -0.0008029815)
(0.7059899 0.06781119 0 0.016322 0 -0.0008029891)
(0.6529572 0.06363381 0 0.02375462 0 -0.0007526024)
(0.6529617 0.06363423 0 0.02375505 0 -0.0007526087)
(0.5796424 0.05704465 0 0.02741921 0 -0.0006755854)
(0.5796459 0.05704498 0 0.02741957 0 -0.0006755904)
(0.4935455 0.04891542 0 0.02777574 0 -0.0005806283)
(0.4935481 0.04891565 0 0.02777601 0 -0.000580632)
(0.4043154 0.04029599 0 0.02574781 0 -0.0004793659)
(0.4043172 0.04029616 0 0.02574801 0 -0.0004793686)
(0.3205958 0.0321083 0 0.02239683 0 -0.0003825637)
(0.3205971 0.03210842 0 0.02239698 0 -0.0003825656)
(0.2479438 0.02494701 0 0.01862193 0 -0.0002974525)
(0.2479447 0.0249471 0 0.01862204 0 -0.0002974539)
(0.1884929 0.0190526 0 0.01501589 0 -0.000227142)
(0.1884935 0.01905266 0 0.01501598 0 -0.000227143)
(0.1418371 0.01440362 0 0.01187563 0 -0.0001715724)
(0.1418376 0.01440366 0 0.0118757 0 -0.0001715732)
(0.1062293 0.01083882 0 0.009289623 0 -0.0001289315)
(0.1062297 0.01083885 0 0.009289671 0 -0.0001289321)
(0.07951373 0.008151889 0 0.007230955 0 -9.680208e-05)
(0.07951399 0.008151913 0 0.007230991 0 -9.680249e-05)
(0.05965416 0.006145331 0 0.005624342 0 -7.283359e-05)
(0.05965434 0.006145348 0 0.005624368 0 -7.283389e-05)
(0.04494537 0.004652542 0 0.004383648 0 -5.502794e-05)
(0.0449455 0.004652555 0 0.004383668 0 -5.502816e-05)
(0.03408266 0.003545343 0 0.003436971 0 -4.184517e-05)
(0.03408275 0.003545352 0 0.003436986 0 -4.184533e-05)
(0.02599098 0.002717707 0 0.002704932 0 -3.199619e-05)
(0.02599104 0.002717713 0 0.002704943 0 -3.19963e-05)
(0.01977231 0.002079066 0 0.002108659 0 -2.439752e-05)
(0.01977235 0.00207907 0 0.002108667 0 -2.43976e-05)
(0.0151896 0.001597899 0 0.001695154 0 -1.88231e-05)
(0.01518963 0.001597901 0 0.00169516 0 -1.882316e-05)
(0.01174778 0.001226837 0 0.001392584 0 -1.464578e-05)
(0.01174779 0.001226839 0 0.001392588 0 -1.464583e-05)
(0.009085927 0.000938094 0 0.001131228 0 -1.138766e-05)
(0.009085937 0.0009380947 0 0.00113123 0 -1.138769e-05)
(0.007117464 0.0007240517 0 0.0009269503 0 -8.96514e-06)
(0.007117469 0.0007240518 0 0.0009269519 0 -8.965165e-06)
(0.005672319 0.0005667566 0 0.0007732595 0 -7.182019e-06)
(0.005672321 0.0005667563 0 0.0007732605 0 -7.182035e-06)
(0.004552932 0.0004477057 0 0.0006438483 0 -5.791082e-06)
(0.004552932 0.0004477053 0 0.0006438488 0 -5.79109e-06)
(0.003804471 0.0003654652 0 0.0005729414 0 -4.874365e-06)
(0.003804469 0.0003654646 0 0.0005729416 0 -4.874368e-06)
(0.002898525 0.0002857849 0 0.0004196905 0 -3.703085e-06)
(0.002898523 0.0002857842 0 0.0004196905 0 -3.703088e-06)
(0.003124224 0.0002683885 0 0.0005847054 0 -4.114199e-06)
(0.003124222 0.0002683879 0 0.0005847053 0 -4.114203e-06)
(0.0005484103 0.0001431343 0 -0.000134784 0 -5.059575e-07)
(0.0005484086 0.0001431336 0 -0.0001347842 0 -5.059657e-07)
(0.006330305 0.0002833262 0 0.00174877 0 -8.910588e-06)
(0.006330303 0.0002833254 0 0.00174877 0 -8.910573e-06)
(-0.007852589 -7.062423e-05 0 -0.002693611 0 8.128543e-06)
(-0.007852588 -7.06235e-05 0 -0.002693611 0 8.128541e-06)
(0.01250786 0.000231322 0 0.003828289 0 -1.159491e-05)
(0.01250785 0.0002313176 0 0.003828288 0 -1.159491e-05)
(-0.003936551 -4.731229e-05 0 -0.001401378 0 2.8912e-06)
(-0.003936552 -4.731771e-05 0 -0.001401378 0 2.891201e-06)
)
;

boundaryField
{
    leftandright
    {
        type            cyclic;
        value           nonuniform List<symmTensor> 
150
(
(-18.42341 -0.003545741 0 0.03401132 0 0.01995371)
(-15.71579 0.122406 0 0.04285965 0 0.01977265)
(-18.0177 0.1574244 0 0.06079198 0 0.02055733)
(-21.23045 0.2130205 0 0.08699534 0 0.02164143)
(-21.92321 0.36839 0 0.118821 0 0.0217376)
(-18.85982 0.6257353 0 0.1505702 0 0.02031586)
(-14.18408 0.9253199 0 0.180685 0 0.01848026)
(-14.7818 1.102688 0 0.217891 0 0.01861979)
(-22.8 1.013992 0 0.2844645 0 0.02063337)
(-22.62394 0.9284131 0 0.3554358 0 0.01887854)
(-12.68061 0.9125538 0 0.3210767 0 0.01148046)
(1.446136 0.8933082 0 0.3001268 0 0.001518276)
(6.759778 0.6818651 0 0.2861592 0 -0.004831931)
(8.147201 0.4442254 0 0.2749628 0 -0.007665979)
(7.90345 0.2257476 0 0.2634207 0 -0.008292816)
(7.007275 0.03231063 0 0.2489379 0 -0.007772091)
(5.890613 -0.1365014 0 0.2298756 0 -0.006749615)
(4.770864 -0.2797204 0 0.205533 0 -0.00558632)
(3.766403 -0.3951743 0 0.1760204 0 -0.004477176)
(2.934266 -0.4810497 0 0.142101 0 -0.003518976)
(2.288335 -0.5369694 0 0.1050146 0 -0.002746923)
(1.814193 -0.5643779 0 0.06628068 0 -0.00215776)
(1.482348 -0.5663912 0 0.02750298 0 -0.001726856)
(1.258632 -0.5473228 0 -0.009801988 0 -0.001420976)
(1.111068 -0.5120857 0 -0.04433069 0 -0.001206914)
(1.013433 -0.4656257 0 -0.07506654 0 -0.001056329)
(0.9463146 -0.4124822 0 -0.1013057 0 -0.0009475992)
(0.8966099 -0.3565103 0 -0.1226455 0 -0.000865718)
(0.8562974 -0.3007562 0 -0.1389486 0 -0.0008011726)
(0.8210332 -0.247452 0 -0.1502949 0 -0.000748503)
(0.7888948 -0.1980903 0 -0.1569304 0 -0.0007049476)
(0.7594028 -0.1535409 0 -0.1592187 0 -0.0006693678)
(0.7328567 -0.1141803 0 -0.1575982 0 -0.0006415263)
(0.7101245 -0.07998617 0 -0.1525283 0 -0.0006218156)
(0.692485 -0.05065342 0 -0.144461 0 -0.0006109708)
(0.6799209 -0.02584651 0 -0.1339652 0 -0.000608552)
(0.6729862 -0.005049653 0 -0.1215079 0 -0.0006146047)
(0.6722513 0.01232382 0 -0.1074589 0 -0.0006293038)
(0.6778633 0.0268297 0 -0.09213377 0 -0.000652449)
(0.6893564 0.03894406 0 -0.07582345 0 -0.0006831843)
(0.7053417 0.04901429 0 -0.05884044 0 -0.0007196044)
(0.7230959 0.05720907 0 -0.04158338 0 -0.0007582393)
(0.7382237 0.06348182 0 -0.0246086 0 -0.0007936152)
(0.7447222 0.06757787 0 -0.008676201 0 -0.0008182852)
(0.7358518 0.06912331 0 0.005282216 0 -0.0008238181)
(0.7059872 0.06781094 0 0.01632175 0 -0.0008029853)
(0.6529595 0.06363402 0 0.02375483 0 -0.0007526055)
(0.5796442 0.05704482 0 0.02741939 0 -0.0006755879)
(0.4935468 0.04891553 0 0.02777587 0 -0.0005806301)
(0.4043163 0.04029608 0 0.02574791 0 -0.0004793673)
(0.3205965 0.03210836 0 0.02239691 0 -0.0003825646)
(0.2479442 0.02494706 0 0.01862199 0 -0.0002974532)
(0.1884932 0.01905263 0 0.01501593 0 -0.0002271425)
(0.1418374 0.01440364 0 0.01187567 0 -0.0001715728)
(0.1062295 0.01083883 0 0.009289647 0 -0.0001289318)
(0.07951386 0.008151901 0 0.007230973 0 -9.680228e-05)
(0.05965425 0.00614534 0 0.005624355 0 -7.283374e-05)
(0.04494544 0.004652548 0 0.004383658 0 -5.502805e-05)
(0.0340827 0.003545347 0 0.003436979 0 -4.184525e-05)
(0.02599101 0.00271771 0 0.002704937 0 -3.199624e-05)
(0.01977233 0.002079068 0 0.002108663 0 -2.439756e-05)
(0.01518962 0.0015979 0 0.001695157 0 -1.882313e-05)
(0.01174778 0.001226838 0 0.001392586 0 -1.46458e-05)
(0.009085932 0.0009380943 0 0.001131229 0 -1.138768e-05)
(0.007117467 0.0007240518 0 0.0009269511 0 -8.965152e-06)
(0.00567232 0.0005667564 0 0.00077326 0 -7.182027e-06)
(0.004552932 0.0004477055 0 0.0006438485 0 -5.791086e-06)
(0.00380447 0.0003654649 0 0.0005729415 0 -4.874366e-06)
(0.002898524 0.0002857845 0 0.0004196905 0 -3.703086e-06)
(0.003124223 0.0002683882 0 0.0005847053 0 -4.114201e-06)
(0.0005484095 0.0001431339 0 -0.0001347841 0 -5.059616e-07)
(0.006330304 0.0002833258 0 0.00174877 0 -8.91058e-06)
(-0.007852589 -7.062387e-05 0 -0.002693611 0 8.128542e-06)
(0.01250785 0.0002313198 0 0.003828288 0 -1.159491e-05)
(-0.003936552 -4.7315e-05 0 -0.001401378 0 2.8912e-06)
(-18.42341 -0.003545741 0 0.03401132 0 0.01995371)
(-15.71579 0.122406 0 0.04285965 0 0.01977265)
(-18.0177 0.1574244 0 0.06079198 0 0.02055733)
(-21.23045 0.2130205 0 0.08699534 0 0.02164143)
(-21.92321 0.36839 0 0.118821 0 0.0217376)
(-18.85982 0.6257353 0 0.1505702 0 0.02031586)
(-14.18408 0.9253199 0 0.180685 0 0.01848026)
(-14.7818 1.102688 0 0.217891 0 0.01861979)
(-22.8 1.013992 0 0.2844645 0 0.02063337)
(-22.62394 0.9284131 0 0.3554358 0 0.01887854)
(-12.68061 0.9125538 0 0.3210767 0 0.01148046)
(1.446136 0.8933082 0 0.3001268 0 0.001518276)
(6.759778 0.6818651 0 0.2861592 0 -0.004831931)
(8.147201 0.4442254 0 0.2749628 0 -0.007665979)
(7.90345 0.2257476 0 0.2634207 0 -0.008292816)
(7.007275 0.03231063 0 0.2489379 0 -0.007772091)
(5.890613 -0.1365014 0 0.2298756 0 -0.006749615)
(4.770864 -0.2797204 0 0.205533 0 -0.00558632)
(3.766403 -0.3951743 0 0.1760204 0 -0.004477176)
(2.934266 -0.4810497 0 0.142101 0 -0.003518976)
(2.288335 -0.5369694 0 0.1050146 0 -0.002746923)
(1.814193 -0.5643779 0 0.06628068 0 -0.00215776)
(1.482348 -0.5663912 0 0.02750298 0 -0.001726856)
(1.258632 -0.5473228 0 -0.009801988 0 -0.001420976)
(1.111068 -0.5120857 0 -0.04433069 0 -0.001206914)
(1.013433 -0.4656257 0 -0.07506654 0 -0.001056329)
(0.9463146 -0.4124822 0 -0.1013057 0 -0.0009475992)
(0.8966099 -0.3565103 0 -0.1226455 0 -0.000865718)
(0.8562974 -0.3007562 0 -0.1389486 0 -0.0008011726)
(0.8210332 -0.247452 0 -0.1502949 0 -0.000748503)
(0.7888948 -0.1980903 0 -0.1569304 0 -0.0007049476)
(0.7594028 -0.1535409 0 -0.1592187 0 -0.0006693678)
(0.7328567 -0.1141803 0 -0.1575982 0 -0.0006415263)
(0.7101245 -0.07998617 0 -0.1525283 0 -0.0006218156)
(0.692485 -0.05065342 0 -0.144461 0 -0.0006109708)
(0.6799209 -0.02584651 0 -0.1339652 0 -0.000608552)
(0.6729862 -0.005049653 0 -0.1215079 0 -0.0006146047)
(0.6722513 0.01232382 0 -0.1074589 0 -0.0006293038)
(0.6778633 0.0268297 0 -0.09213377 0 -0.000652449)
(0.6893564 0.03894406 0 -0.07582345 0 -0.0006831843)
(0.7053417 0.04901429 0 -0.05884044 0 -0.0007196044)
(0.7230959 0.05720907 0 -0.04158338 0 -0.0007582393)
(0.7382237 0.06348182 0 -0.0246086 0 -0.0007936152)
(0.7447222 0.06757787 0 -0.008676201 0 -0.0008182852)
(0.7358518 0.06912331 0 0.005282216 0 -0.0008238181)
(0.7059872 0.06781094 0 0.01632175 0 -0.0008029853)
(0.6529595 0.06363402 0 0.02375483 0 -0.0007526055)
(0.5796442 0.05704482 0 0.02741939 0 -0.0006755879)
(0.4935468 0.04891553 0 0.02777587 0 -0.0005806301)
(0.4043163 0.04029608 0 0.02574791 0 -0.0004793673)
(0.3205965 0.03210836 0 0.02239691 0 -0.0003825646)
(0.2479442 0.02494706 0 0.01862199 0 -0.0002974532)
(0.1884932 0.01905263 0 0.01501593 0 -0.0002271425)
(0.1418374 0.01440364 0 0.01187567 0 -0.0001715728)
(0.1062295 0.01083883 0 0.009289647 0 -0.0001289318)
(0.07951386 0.008151901 0 0.007230973 0 -9.680228e-05)
(0.05965425 0.00614534 0 0.005624355 0 -7.283374e-05)
(0.04494544 0.004652548 0 0.004383658 0 -5.502805e-05)
(0.0340827 0.003545347 0 0.003436979 0 -4.184525e-05)
(0.02599101 0.00271771 0 0.002704937 0 -3.199624e-05)
(0.01977233 0.002079068 0 0.002108663 0 -2.439756e-05)
(0.01518962 0.0015979 0 0.001695157 0 -1.882313e-05)
(0.01174778 0.001226838 0 0.001392586 0 -1.46458e-05)
(0.009085932 0.0009380943 0 0.001131229 0 -1.138768e-05)
(0.007117467 0.0007240518 0 0.0009269511 0 -8.965152e-06)
(0.00567232 0.0005667564 0 0.00077326 0 -7.182027e-06)
(0.004552932 0.0004477055 0 0.0006438485 0 -5.791086e-06)
(0.00380447 0.0003654649 0 0.0005729415 0 -4.874366e-06)
(0.002898524 0.0002857845 0 0.0004196905 0 -3.703086e-06)
(0.003124223 0.0002683882 0 0.0005847053 0 -4.114201e-06)
(0.0005484095 0.0001431339 0 -0.0001347841 0 -5.059616e-07)
(0.006330304 0.0002833258 0 0.00174877 0 -8.91058e-06)
(-0.007852589 -7.062387e-05 0 -0.002693611 0 8.128542e-06)
(0.01250785 0.0002313198 0 0.003828288 0 -1.159491e-05)
(-0.003936552 -4.7315e-05 0 -0.001401378 0 2.8912e-06)
)
;
    }
    wall
    {
        type            calculated;
        value           nonuniform List<symmTensor> 2((-18.4234 -0.003545822 0 0.0340113 0 0.01995374) (-18.42342 -0.003545661 0 0.03401135 0 0.01995367));
    }
    frontAndBack
    {
        type            empty;
    }
    middle
    {
        type            symmetryPlane;
        value           nonuniform List<symmTensor> 2((-0.003936551 0 0 -0.001401378 0 2.8912e-06) (-0.003936552 0 0 -0.001401378 0 2.891201e-06));
    }
}


// ************************************************************************* //
