/*--------------------------------*- C++ -*----------------------------------*\
| =========                 |                                                 |
| \\      /  F ield         | foam-extend: Open Source CFD                    |
|  \\    /   O peration     | Version:     4.0                                |
|   \\  /    A nd           | Web:         http://www.foam-extend.org         |
|    \\/     M anipulation  |                                                 |
\*---------------------------------------------------------------------------*/
FoamFile
{
    version     2.0;
    format      ascii;
    class       volScalarField;
    location    "10000";
    object      epsilonV;
}
// * * * * * * * * * * * * * * * * * * * * * * * * * * * * * * * * * * * * * //

dimensions      [0 2 -3 0 0 0 0];

internalField   nonuniform List<scalar> 
150
(
2.285974e-05
2.285974e-05
0.001181689
0.001181689
0.007502063
0.007502064
0.02563757
0.02563757
0.06326782
0.06326783
0.126618
0.126618
0.2181834
0.2181834
0.3362331
0.3362331
0.4754745
0.4754745
0.6581525
0.6581525
0.9301942
0.9301943
1.225369
1.225369
1.537739
1.537739
1.861208
1.861208
2.190672
2.190672
2.52152
2.52152
2.849264
2.849264
3.169299
3.169299
3.476826
3.476827
3.766926
3.766926
4.03473
4.03473
4.275654
4.275654
4.485623
4.485624
4.661263
4.661264
4.800018
4.800018
4.900206
4.900206
4.961009
4.96101
4.982421
4.982422
4.96516
4.96516
4.91057
4.91057
4.820522
4.820523
4.697325
4.697325
4.543636
4.543635
4.362397
4.362396
4.156784
4.156784
3.930183
3.930183
3.686137
3.686137
3.428336
3.428335
3.160614
3.160614
2.886967
2.886966
2.611551
2.61155
2.338675
2.338674
2.072748
2.072747
1.818155
1.818154
1.579039
1.579038
1.358984
1.358983
1.16066
1.16066
0.9855162
0.9855156
0.8336542
0.8336538
0.7039461
0.7039457
0.5943587
0.5943584
0.5023713
0.5023711
0.4253536
0.4253535
0.3608306
0.3608305
0.3066217
0.3066216
0.2608851
0.2608851
0.2221055
0.2221054
0.1890545
0.1890545
0.1607449
0.1607449
0.1363913
0.1363913
0.1153611
0.115361
0.09710634
0.09710634
0.08121021
0.08121021
0.06734304
0.06734304
0.05521551
0.05521551
0.04460389
0.04460389
0.03534538
0.03534538
0.02730502
0.02730502
0.02043234
0.02043234
0.0145273
0.0145273
0.009971286
0.009971287
0.005347031
0.005347031
0.004970511
0.004970511
-0.001943432
-0.001943431
0.001874338
0.001874338
)
;

boundaryField
{
    leftandright
    {
        type            cyclic;
        value           nonuniform List<scalar> 
150
(
2.285974e-05
0.001181689
0.007502063
0.02563757
0.06326783
0.126618
0.2181834
0.3362331
0.4754745
0.6581525
0.9301942
1.225369
1.537739
1.861208
2.190672
2.52152
2.849264
3.169299
3.476827
3.766926
4.03473
4.275654
4.485623
4.661263
4.800018
4.900206
4.961009
4.982422
4.96516
4.91057
4.820523
4.697325
4.543636
4.362397
4.156784
3.930183
3.686137
3.428335
3.160614
2.886967
2.61155
2.338674
2.072747
1.818155
1.579038
1.358984
1.16066
0.9855159
0.833654
0.7039459
0.5943586
0.5023712
0.4253535
0.3608306
0.3066217
0.2608851
0.2221054
0.1890545
0.1607449
0.1363913
0.1153611
0.09710634
0.08121021
0.06734304
0.05521551
0.04460389
0.03534538
0.02730502
0.02043234
0.0145273
0.009971286
0.005347031
0.004970511
-0.001943432
0.001874338
2.285974e-05
0.001181689
0.007502063
0.02563757
0.06326783
0.126618
0.2181834
0.3362331
0.4754745
0.6581525
0.9301942
1.225369
1.537739
1.861208
2.190672
2.52152
2.849264
3.169299
3.476827
3.766926
4.03473
4.275654
4.485623
4.661263
4.800018
4.900206
4.961009
4.982422
4.96516
4.91057
4.820523
4.697325
4.543636
4.362397
4.156784
3.930183
3.686137
3.428335
3.160614
2.886967
2.61155
2.338674
2.072747
1.818155
1.579038
1.358984
1.16066
0.9855159
0.833654
0.7039459
0.5943586
0.5023712
0.4253535
0.3608306
0.3066217
0.2608851
0.2221054
0.1890545
0.1607449
0.1363913
0.1153611
0.09710634
0.08121021
0.06734304
0.05521551
0.04460389
0.03534538
0.02730502
0.02043234
0.0145273
0.009971286
0.005347031
0.004970511
-0.001943432
0.001874338
)
;
    }
    wall
    {
        type            calculated;
        value           nonuniform List<scalar> 2(2.695206e-09 2.695206e-09);
    }
    frontAndBack
    {
        type            empty;
    }
    middle
    {
        type            symmetryPlane;
        value           nonuniform List<scalar> 2(0.001874338 0.001874338);
    }
}


// ************************************************************************* //
