/*--------------------------------*- C++ -*----------------------------------*\
| =========                 |                                                 |
| \\      /  F ield         | foam-extend: Open Source CFD                    |
|  \\    /   O peration     | Version:     4.0                                |
|   \\  /    A nd           | Web:         http://www.foam-extend.org         |
|    \\/     M anipulation  |                                                 |
\*---------------------------------------------------------------------------*/
FoamFile
{
    version     2.0;
    format      ascii;
    class       volScalarField;
    location    "10000";
    object      fp;
}
// * * * * * * * * * * * * * * * * * * * * * * * * * * * * * * * * * * * * * //

dimensions      [0 0 0 0 0 0 0];

internalField   nonuniform List<scalar> 
150
(
1.59183
1.59183
1.591005
1.591005
1.589364
1.589364
1.586665
1.586665
1.582572
1.582572
1.57686
1.57686
1.569555
1.569555
1.56085
1.56085
1.550557
1.550557
1.537786
1.537786
1.522341
1.522341
1.505092
1.505092
1.487583
1.487583
1.470506
1.470506
1.454125
1.454125
1.438504
1.438504
1.423603
1.423603
1.409331
1.409331
1.395568
1.395568
1.382191
1.382191
1.369082
1.369082
1.356141
1.356141
1.343287
1.343287
1.330461
1.330461
1.31762
1.31762
1.30474
1.30474
1.291805
1.291805
1.27881
1.27881
1.265753
1.265753
1.252638
1.252638
1.239471
1.239471
1.226262
1.226262
1.213021
1.213021
1.199765
1.199765
1.186512
1.186512
1.173291
1.173291
1.160134
1.160134
1.147084
1.147084
1.134194
1.134194
1.121531
1.121531
1.109173
1.109173
1.097218
1.097218
1.085773
1.085773
1.074959
1.074959
1.064897
1.064897
1.055696
1.055696
1.047439
1.047439
1.040169
1.040169
1.03388
1.03388
1.028519
1.028519
1.024
1.024
1.020216
1.020216
1.017057
1.017057
1.014419
1.014419
1.01221
1.01221
1.010353
1.010353
1.008786
1.008786
1.007455
1.007455
1.006319
1.006319
1.005347
1.005347
1.004511
1.004511
1.003788
1.003788
1.003161
1.003161
1.002615
1.002615
1.00214
1.00214
1.001726
1.001726
1.001365
1.001365
1.001052
1.001052
1.000786
1.000786
1.000558
1.000558
1.000382
1.000382
1.000205
1.000205
1.000189
1.000189
1
1
1.000071
1.000071
)
;

boundaryField
{
    leftandright
    {
        type            cyclic;
        value           nonuniform List<scalar> 
150
(
1.59183
1.591005
1.589364
1.586665
1.582572
1.57686
1.569555
1.56085
1.550557
1.537786
1.522341
1.505092
1.487583
1.470506
1.454125
1.438504
1.423603
1.409331
1.395568
1.382191
1.369082
1.356141
1.343287
1.330461
1.31762
1.30474
1.291805
1.27881
1.265753
1.252638
1.239471
1.226262
1.213021
1.199765
1.186512
1.173291
1.160134
1.147084
1.134194
1.121531
1.109173
1.097218
1.085773
1.074959
1.064897
1.055696
1.047439
1.040169
1.03388
1.028519
1.024
1.020216
1.017057
1.014419
1.01221
1.010353
1.008786
1.007455
1.006319
1.005347
1.004511
1.003788
1.003161
1.002615
1.00214
1.001726
1.001365
1.001052
1.000786
1.000558
1.000382
1.000205
1.000189
1
1.000071
1.59183
1.591005
1.589364
1.586665
1.582572
1.57686
1.569555
1.56085
1.550557
1.537786
1.522341
1.505092
1.487583
1.470506
1.454125
1.438504
1.423603
1.409331
1.395568
1.382191
1.369082
1.356141
1.343287
1.330461
1.31762
1.30474
1.291805
1.27881
1.265753
1.252638
1.239471
1.226262
1.213021
1.199765
1.186512
1.173291
1.160134
1.147084
1.134194
1.121531
1.109173
1.097218
1.085773
1.074959
1.064897
1.055696
1.047439
1.040169
1.03388
1.028519
1.024
1.020216
1.017057
1.014419
1.01221
1.010353
1.008786
1.007455
1.006319
1.005347
1.004511
1.003788
1.003161
1.002615
1.00214
1.001726
1.001365
1.001052
1.000786
1.000558
1.000382
1.000205
1.000189
1
1.000071
)
;
    }
    wall
    {
        type            calculated;
        value           nonuniform List<scalar> 2(1.59183 1.59183);
    }
    frontAndBack
    {
        type            empty;
    }
    middle
    {
        type            symmetryPlane;
        value           nonuniform List<scalar> 2(1.000071 1.000071);
    }
}


// ************************************************************************* //
