/*--------------------------------*- C++ -*----------------------------------*\
| =========                 |                                                 |
| \\      /  F ield         | foam-extend: Open Source CFD                    |
|  \\    /   O peration     | Version:     4.0                                |
|   \\  /    A nd           | Web:         http://www.foam-extend.org         |
|    \\/     M anipulation  |                                                 |
\*---------------------------------------------------------------------------*/
FoamFile
{
    version     2.0;
    format      ascii;
    class       volSymmTensorField;
    location    "10000";
    object      N;
}
// * * * * * * * * * * * * * * * * * * * * * * * * * * * * * * * * * * * * * //

dimensions      [0 2 -2 0 0 0 0];

internalField   nonuniform List<symmTensor> 
150
(
(0.01145377 0 0 1.266847e-06 0 0.0008788589)
(0.01145377 0 0 1.266847e-06 0 0.0008788589)
(0.1220386 0 0 6.14089e-05 0 0.009370185)
(0.1220386 0 0 6.140891e-05 0 0.009370186)
(0.322103 0 0 0.0003687035 0 0.02475957)
(0.322103 0 0 0.0003687035 0 0.02475957)
(0.6130397 0 0 0.00120711 0 0.04720137)
(0.6130397 0 0 0.00120711 0 0.04720137)
(0.9953018 0 0 0.002904593 0 0.0768031)
(0.9953018 0 0 0.002904593 0 0.07680311)
(1.466908 0 0 0.005788919 0 0.1135105)
(1.466908 0 0 0.00578892 0 0.1135105)
(2.022147 3.702973e-18 0 0.01015307 0 0.1569964)
(2.022147 -3.702973e-18 0 0.01015307 0 0.1569964)
(2.651194 0 0 0.01623488 0 0.2066162)
(2.651194 0 0 0.01623488 0 0.2066162)
(3.340884 0 0 0.02421321 0 0.2614908)
(3.340884 -1.083139e-17 0 0.02421321 0 0.2614908)
(4.074142 0 0 0.03418538 0 0.3205172)
(4.074142 0 0 0.03418538 0 0.3205172)
(4.81068 0 0 0.04608733 0 0.3940534)
(4.81068 0 0 0.04608733 0 0.3940534)
(5.513117 -3.30041e-17 0 0.05976278 0 0.4795786)
(5.513117 3.30041e-17 0 0.05976279 0 0.4795786)
(6.161251 0 0 0.07506735 0 0.5673021)
(6.161252 0 0 0.07506735 0 0.5673022)
(6.734721 4.007125e-17 0 0.09182876 0 0.6549771)
(6.734721 -4.007126e-17 0 0.09182877 0 0.6549771)
(7.220913 0 0 0.1098595 0 0.740668)
(7.220914 0 0 0.1098595 0 0.740668)
(7.614353 -4.468679e-17 0 0.1289676 0 0.8228214)
(7.614354 0 0 0.1289676 0 0.8228215)
(7.915426 0 0 0.1489661 0 0.9002823)
(7.915426 0 0 0.1489661 0 0.9002823)
(8.128871 9.357016e-17 0 0.1696787 0 0.9722712)
(8.128871 0 0 0.1696787 0 0.9722712)
(8.262318 0 0 0.1909443 0 1.038338)
(8.262318 0 0 0.1909443 0 1.038338)
(8.325028 -1.869184e-16 0 0.2126183 0 1.098302)
(8.325028 9.345921e-17 0 0.2126183 0 1.098302)
(8.326899 0 0 0.234573 0 1.152196)
(8.3269 0 0 0.2345731 0 1.152196)
(8.277756 1.802275e-16 0 0.2566968 0 1.200207)
(8.277756 0 0 0.2566968 0 1.200207)
(8.186864 1.75139e-16 0 0.2788921 0 1.242628)
(8.186864 0 0 0.2788921 0 1.242628)
(8.062647 0 0 0.3010738 0 1.279819)
(8.062647 0 0 0.3010738 0 1.279819)
(7.912552 -1.626769e-16 0 0.3231669 0 1.312175)
(7.912552 0 0 0.323167 0 1.312175)
(7.743008 -1.557039e-16 0 0.3451051 0 1.340105)
(7.743008 0 0 0.3451051 0 1.340105)
(7.559461 -2.969141e-16 0 0.3668281 0 1.364008)
(7.559461 0 0 0.3668282 0 1.364008)
(7.366446 0 0 0.3882812 0 1.384271)
(7.366446 0 0 0.3882813 0 1.384271)
(7.167674 0 0 0.4094131 0 1.401251)
(7.167674 0 0 0.4094131 0 1.401251)
(6.966137 0 0 0.4301753 0 1.415277)
(6.966137 0 0 0.4301753 0 1.415277)
(6.764204 2.381032e-16 0 0.4505212 0 1.426647)
(6.764204 -2.381032e-16 0 0.4505212 0 1.426648)
(6.563713 2.23994e-16 0 0.4704057 0 1.435626)
(6.563713 0 0 0.4704057 0 1.435626)
(6.366052 -6.309867e-16 0 0.4897848 0 1.442446)
(6.366052 0 0 0.4897848 0 1.442446)
(6.17223 0 0 0.5086158 0 1.447308)
(6.17223 0 0 0.5086159 0 1.447308)
(5.982945 3.690977e-16 0 0.5268575 0 1.450385)
(5.982945 0 0 0.5268575 0 1.450385)
(5.798628 0 0 0.5444708 0 1.451822)
(5.798628 0 0 0.5444708 0 1.451822)
(5.619499 6.441239e-16 0 0.5614166 0 1.451738)
(5.619499 -3.22062e-16 0 0.5614167 0 1.451738)
(5.445604 0 0 0.5776551 0 1.450224)
(5.445604 0 0 0.5776551 0 1.450224)
(5.276851 0 0 0.5931436 0 1.447344)
(5.276851 0 0 0.5931436 0 1.447344)
(5.113033 0 0 0.6078372 0 1.443139)
(5.113033 0 0 0.6078372 0 1.443139)
(4.953858 0 0 0.6216873 0 1.437629)
(4.953858 0 0 0.6216873 0 1.437629)
(4.798965 0 0 0.6346424 0 1.430809)
(4.798965 0 0 0.6346424 0 1.430809)
(4.647945 0 0 0.646648 0 1.422661)
(4.647945 0 0 0.646648 0 1.422661)
(4.500361 -7.71156e-16 0 0.657647 0 1.41315)
(4.500361 0 0 0.657647 0 1.41315)
(4.355765 -3.567036e-16 0 0.6675804 0 1.402231)
(4.355765 0 0 0.6675804 0 1.402231)
(4.21372 0 0 0.6763889 0 1.389853)
(4.21372 0 0 0.6763889 0 1.389853)
(4.073816 0 0 0.6840132 0 1.375964)
(4.073816 0 0 0.6840132 0 1.375964)
(3.935683 0 0 0.6903964 0 1.360514)
(3.935683 0 0 0.6903964 0 1.360514)
(3.79901 5.154871e-16 0 0.6954843 0 1.34346)
(3.79901 0 0 0.6954843 0 1.34346)
(3.663542 4.734404e-16 0 0.6992274 0 1.324768)
(3.663542 -4.734404e-16 0 0.6992274 0 1.324768)
(3.529089 0 0 0.701581 0 1.304417)
(3.529089 0 0 0.701581 0 1.304417)
(3.395521 0 0 0.7025056 0 1.282396)
(3.395521 0 0 0.7025056 0 1.282396)
(3.262764 0 0 0.7019674 0 1.258707)
(3.262764 0 0 0.7019674 0 1.258707)
(3.130795 0 0 0.699937 0 1.233363)
(3.130795 0 0 0.699937 0 1.233363)
(2.99964 0 0 0.6963892 0 1.206388)
(2.99964 0 0 0.6963892 0 1.206388)
(2.869374 -5.460559e-16 0 0.6913009 0 1.177814)
(2.869374 5.460559e-16 0 0.6913009 0 1.177814)
(2.740125 0 0 0.6846489 0 1.147682)
(2.740125 0 0 0.6846489 0 1.147682)
(2.612077 0 0 0.6764059 0 1.116042)
(2.612077 0 0 0.6764059 0 1.116042)
(2.485486 -4.02453e-16 0 0.6665351 0 1.082945)
(2.485486 4.02453e-16 0 0.6665351 0 1.082945)
(2.36069 0 0 0.6549815 0 1.048446)
(2.36069 0 0 0.6549815 0 1.048446)
(2.238133 0 0 0.6416586 0 1.012595)
(2.238133 0 0 0.6416586 0 1.012595)
(2.118388 0 0 0.6264296 0 0.9754265)
(2.118388 0 0 0.6264295 0 0.9754265)
(2.001754 -1.03798e-15 0 0.6093829 0 0.9371252)
(2.001754 0 0 0.6093829 0 0.9371251)
(1.888304 0 0 0.5908546 0 0.8980423)
(1.888304 -4.627868e-16 0 0.5908546 0 0.8980423)
(1.7783 0 0 0.5712002 0 0.8585746)
(1.7783 0 0 0.5712002 0 0.8585746)
(1.672209 0 0 0.5508056 0 0.8191789)
(1.672209 0 0 0.5508056 0 0.8191789)
(1.570721 0 0 0.5300946 0 0.7803843)
(1.570721 -6.493842e-16 0 0.5300946 0 0.7803843)
(1.474745 0 0 0.5095328 0 0.7427977)
(1.474745 0 0 0.5095328 0 0.7427977)
(1.385407 0 0 0.4896257 0 0.707102)
(1.385407 0 0 0.4896256 0 0.707102)
(1.304017 0 0 0.47091 0 0.6740441)
(1.304017 0 0 0.47091 0 0.6740441)
(1.232022 0 0 0.4539393 0 0.6444131)
(1.232022 0 0 0.4539393 0 0.6444131)
(1.17096 0 0 0.439268 0 0.6190187)
(1.17096 0 0 0.439268 0 0.6190187)
(1.122403 0 0 0.4274353 0 0.5986654)
(1.122403 0 0 0.4274353 0 0.5986654)
(1.08807 0 0 0.4189827 0 0.5841909)
(1.08807 0 0 0.4189827 0 0.5841909)
(1.069699 -5.641174e-16 0 0.4144374 0 0.576423)
(1.069699 0 0 0.4144374 0 0.576423)
)
;

boundaryField
{
    leftandright
    {
        type            cyclic;
        value           nonuniform List<symmTensor> 
150
(
(0.01145377 0 0 1.266847e-06 0 0.0008788589)
(0.1220386 0 0 6.140891e-05 0 0.009370186)
(0.322103 0 0 0.0003687035 0 0.02475957)
(0.6130397 0 0 0.00120711 0 0.04720137)
(0.9953018 0 0 0.002904593 0 0.07680311)
(1.466908 0 0 0.00578892 0 0.1135105)
(2.022147 -2.036232e-33 0 0.01015307 0 0.1569964)
(2.651194 0 0 0.01623488 0 0.2066162)
(3.340884 -5.415695e-18 0 0.02421321 0 0.2614908)
(4.074142 0 0 0.03418538 0 0.3205172)
(4.81068 0 0 0.04608733 0 0.3940534)
(5.513117 -2.587315e-33 0 0.05976279 0 0.4795786)
(6.161252 0 0 0.07506735 0 0.5673021)
(6.734721 1.041201e-32 0 0.09182876 0 0.6549771)
(7.220914 0 0 0.1098595 0 0.740668)
(7.614353 -2.23434e-17 0 0.1289676 0 0.8228214)
(7.915426 0 0 0.1489661 0 0.9002823)
(8.128871 4.678508e-17 0 0.1696787 0 0.9722712)
(8.262318 0 0 0.1909443 0 1.038338)
(8.325028 -4.672961e-17 0 0.2126183 0 1.098302)
(8.326899 0 0 0.2345731 0 1.152196)
(8.277756 9.011375e-17 0 0.2566968 0 1.200207)
(8.186864 8.75695e-17 0 0.2788921 0 1.242628)
(8.062647 0 0 0.3010738 0 1.279819)
(7.912552 -8.133846e-17 0 0.323167 0 1.312175)
(7.743008 -7.785195e-17 0 0.3451051 0 1.340105)
(7.559461 -1.484571e-16 0 0.3668281 0 1.364008)
(7.366446 0 0 0.3882812 0 1.384271)
(7.167674 0 0 0.4094131 0 1.401251)
(6.966137 0 0 0.4301753 0 1.415277)
(6.764204 0 0 0.4505212 0 1.426648)
(6.563713 1.11997e-16 0 0.4704057 0 1.435626)
(6.366052 -3.154933e-16 0 0.4897848 0 1.442446)
(6.17223 0 0 0.5086158 0 1.447308)
(5.982945 1.845489e-16 0 0.5268575 0 1.450385)
(5.798628 0 0 0.5444708 0 1.451822)
(5.619499 1.61031e-16 0 0.5614167 0 1.451738)
(5.445604 0 0 0.5776551 0 1.450224)
(5.276851 0 0 0.5931436 0 1.447344)
(5.113033 0 0 0.6078372 0 1.443139)
(4.953858 0 0 0.6216873 0 1.437629)
(4.798965 0 0 0.6346424 0 1.430809)
(4.647945 0 0 0.646648 0 1.422661)
(4.500361 -3.85578e-16 0 0.657647 0 1.41315)
(4.355765 -1.783518e-16 0 0.6675804 0 1.402231)
(4.21372 0 0 0.6763889 0 1.389853)
(4.073816 0 0 0.6840132 0 1.375964)
(3.935683 0 0 0.6903964 0 1.360514)
(3.79901 2.577435e-16 0 0.6954843 0 1.34346)
(3.663542 5.243063e-31 0 0.6992274 0 1.324768)
(3.529089 0 0 0.701581 0 1.304417)
(3.395521 0 0 0.7025056 0 1.282396)
(3.262764 0 0 0.7019674 0 1.258707)
(3.130795 0 0 0.699937 0 1.233363)
(2.99964 0 0 0.6963892 0 1.206388)
(2.869374 -4.797387e-32 0 0.6913009 0 1.177814)
(2.740125 0 0 0.6846489 0 1.147682)
(2.612077 0 0 0.6764059 0 1.116042)
(2.485486 -8.212232e-32 0 0.6665351 0 1.082945)
(2.36069 0 0 0.6549815 0 1.048446)
(2.238133 0 0 0.6416586 0 1.012595)
(2.118388 0 0 0.6264295 0 0.9754265)
(2.001754 -5.1899e-16 0 0.6093829 0 0.9371251)
(1.888304 -2.313934e-16 0 0.5908546 0 0.8980423)
(1.7783 0 0 0.5712002 0 0.8585746)
(1.672209 0 0 0.5508056 0 0.8191789)
(1.570721 -3.246921e-16 0 0.5300946 0 0.7803843)
(1.474745 0 0 0.5095328 0 0.7427977)
(1.385407 0 0 0.4896256 0 0.707102)
(1.304017 0 0 0.47091 0 0.6740441)
(1.232022 0 0 0.4539393 0 0.6444131)
(1.17096 0 0 0.439268 0 0.6190187)
(1.122403 0 0 0.4274353 0 0.5986654)
(1.08807 0 0 0.4189827 0 0.5841909)
(1.069699 -2.820587e-16 0 0.4144374 0 0.576423)
(0.01145377 0 0 1.266847e-06 0 0.0008788589)
(0.1220386 0 0 6.140891e-05 0 0.009370186)
(0.322103 0 0 0.0003687035 0 0.02475957)
(0.6130397 0 0 0.00120711 0 0.04720137)
(0.9953018 0 0 0.002904593 0 0.07680311)
(1.466908 0 0 0.00578892 0 0.1135105)
(2.022147 -2.26248e-33 0 0.01015307 0 0.1569964)
(2.651194 0 0 0.01623488 0 0.2066162)
(3.340884 -5.415695e-18 0 0.02421321 0 0.2614908)
(4.074142 0 0 0.03418538 0 0.3205172)
(4.81068 0 0 0.04608733 0 0.3940534)
(5.513117 -2.587315e-33 0 0.05976279 0 0.4795786)
(6.161252 0 0 0.07506735 0 0.5673021)
(6.734721 1.041201e-32 0 0.09182876 0 0.6549771)
(7.220914 0 0 0.1098595 0 0.740668)
(7.614353 -2.23434e-17 0 0.1289676 0 0.8228214)
(7.915426 0 0 0.1489661 0 0.9002823)
(8.128871 4.678508e-17 0 0.1696787 0 0.9722712)
(8.262318 0 0 0.1909443 0 1.038338)
(8.325028 -4.672961e-17 0 0.2126183 0 1.098302)
(8.326899 0 0 0.2345731 0 1.152196)
(8.277756 9.011375e-17 0 0.2566968 0 1.200207)
(8.186864 8.75695e-17 0 0.2788921 0 1.242628)
(8.062647 0 0 0.3010738 0 1.279819)
(7.912552 -8.133846e-17 0 0.323167 0 1.312175)
(7.743008 -7.785195e-17 0 0.3451051 0 1.340105)
(7.559461 -1.484571e-16 0 0.3668281 0 1.364008)
(7.366446 0 0 0.3882812 0 1.384271)
(7.167674 0 0 0.4094131 0 1.401251)
(6.966137 0 0 0.4301753 0 1.415277)
(6.764204 0 0 0.4505212 0 1.426648)
(6.563713 1.11997e-16 0 0.4704057 0 1.435626)
(6.366052 -3.154933e-16 0 0.4897848 0 1.442446)
(6.17223 0 0 0.5086158 0 1.447308)
(5.982945 1.845489e-16 0 0.5268575 0 1.450385)
(5.798628 0 0 0.5444708 0 1.451822)
(5.619499 1.61031e-16 0 0.5614167 0 1.451738)
(5.445604 0 0 0.5776551 0 1.450224)
(5.276851 0 0 0.5931436 0 1.447344)
(5.113033 0 0 0.6078372 0 1.443139)
(4.953858 0 0 0.6216873 0 1.437629)
(4.798965 0 0 0.6346424 0 1.430809)
(4.647945 0 0 0.646648 0 1.422661)
(4.500361 -3.85578e-16 0 0.657647 0 1.41315)
(4.355765 -1.783518e-16 0 0.6675804 0 1.402231)
(4.21372 0 0 0.6763889 0 1.389853)
(4.073816 0 0 0.6840132 0 1.375964)
(3.935683 0 0 0.6903964 0 1.360514)
(3.79901 2.577435e-16 0 0.6954843 0 1.34346)
(3.663542 5.243063e-31 0 0.6992274 0 1.324768)
(3.529089 0 0 0.701581 0 1.304417)
(3.395521 0 0 0.7025056 0 1.282396)
(3.262764 0 0 0.7019674 0 1.258707)
(3.130795 0 0 0.699937 0 1.233363)
(2.99964 0 0 0.6963892 0 1.206388)
(2.869374 -4.797387e-32 0 0.6913009 0 1.177814)
(2.740125 0 0 0.6846489 0 1.147682)
(2.612077 0 0 0.6764059 0 1.116042)
(2.485486 -8.212232e-32 0 0.6665351 0 1.082945)
(2.36069 0 0 0.6549815 0 1.048446)
(2.238133 0 0 0.6416586 0 1.012595)
(2.118388 0 0 0.6264295 0 0.9754265)
(2.001754 -5.1899e-16 0 0.6093829 0 0.9371251)
(1.888304 -2.313934e-16 0 0.5908546 0 0.8980423)
(1.7783 0 0 0.5712002 0 0.8585746)
(1.672209 0 0 0.5508056 0 0.8191789)
(1.570721 -3.246921e-16 0 0.5300946 0 0.7803843)
(1.474745 0 0 0.5095328 0 0.7427977)
(1.385407 0 0 0.4896256 0 0.707102)
(1.304017 0 0 0.47091 0 0.6740441)
(1.232022 0 0 0.4539393 0 0.6444131)
(1.17096 0 0 0.439268 0 0.6190187)
(1.122403 0 0 0.4274353 0 0.5986654)
(1.08807 0 0 0.4189827 0 0.5841909)
(1.069699 -2.820587e-16 0 0.4144374 0 0.576423)
)
;
    }
    wall
    {
        type            calculated;
        value           uniform (3.333333e-11 0 0 1e-10 0 6.666667e-11);
    }
    frontAndBack
    {
        type            empty;
    }
    middle
    {
        type            symmetryPlane;
        value           nonuniform List<symmTensor> 2((1.069699 0 0 0.576423 0 0.576423) (1.069699 0 0 0.576423 0 0.576423));
    }
}


// ************************************************************************* //
