/*--------------------------------*- C++ -*----------------------------------*\
| =========                 |                                                 |
| \\      /  F ield         | foam-extend: Open Source CFD                    |
|  \\    /   O peration     | Version:     4.0                                |
|   \\  /    A nd           | Web:         http://www.foam-extend.org         |
|    \\/     M anipulation  |                                                 |
\*---------------------------------------------------------------------------*/
FoamFile
{
    version     2.0;
    format      ascii;
    class       volSymmTensorField;
    location    "10000";
    object      NLT;
}
// * * * * * * * * * * * * * * * * * * * * * * * * * * * * * * * * * * * * * //

dimensions      [0 0 -1 0 0 0 0];

internalField   nonuniform List<symmTensor> 
150
(
(0.007179388 0 0 8.111554e-07 0 0)
(0.007179389 0 0 8.111555e-07 0 0)
(0.3711679 0 0 0.0001907073 0 0)
(0.3711679 0 0 0.0001907073 0 0)
(2.357286 0 0 0.002753363 0 0)
(2.357286 0 0 0.002753363 0 0)
(8.062738 0 0 0.0161855 0 0)
(8.062739 0 0 0.01618551 0 0)
(19.92933 0 0 0.05923226 0 0)
(19.92933 0 0 0.05923226 0 0)
(39.98752 0 0 0.1605294 0 0)
(39.98752 0 0 0.1605294 0 0)
(69.15081 -8.895673e-18 0 0.3527625 0 0)
(69.15081 8.895674e-18 0 0.3527626 0 0)
(107.0412 0 0 0.6651188 0 0)
(107.0412 0 0 0.6651189 0 0)
(152.2032 0 0 1.117816 0 0)
(152.2032 5.102676e-17 0 1.117817 0 0)
(212.188 0 0 1.801621 0 0)
(212.188 0 0 1.801621 0 0)
(302.5874 0 0 2.921446 0 0)
(302.5874 0 0 2.921447 0 0)
(402.693 3.438546e-16 0 4.37387 0 0)
(402.6931 -3.438547e-16 0 4.37387 0 0)
(510.6511 0 0 6.197663 0 0)
(510.6512 0 0 6.197663 0 0)
(624.4043 -5.9987e-16 0 8.430378 0 0)
(624.4043 5.998701e-16 0 8.430379 0 0)
(742.1359 0 0 11.11124 0 0)
(742.1359 0 0 11.11124 0 0)
(862.144 9.195579e-16 0 14.27802 0 0)
(862.1441 0 0 14.27802 0 0)
(982.7407 0 0 17.96323 0 0)
(982.7408 0 0 17.96324 0 0)
(1102.188 -2.587019e-15 0 22.19 0 0)
(1102.188 0 0 22.19001 0 0)
(1218.676 0 0 26.96796 0 0)
(1218.676 0 0 26.96797 0 0)
(1330.35 6.814564e-15 0 32.28975 0 0)
(1330.35 -3.407282e-15 0 32.28976 0 0)
(1435.361 0 0 38.12839 0 0)
(1435.361 0 0 38.1284 0 0)
(1531.939 -8.488058e-15 0 44.43589 0 0)
(1531.939 0 0 44.4359 0 0)
(1618.47 -9.294191e-15 0 51.14305 0 0)
(1618.47 0 0 51.14306 0 0)
(1693.554 0 0 58.16053 0 0)
(1693.555 0 0 58.16053 0 0)
(1756.057 1.075417e-14 0 65.38088 0 0)
(1756.058 0 0 65.38088 0 0)
(1805.131 1.137365e-14 0 72.68138 0 0)
(1805.131 0 0 72.68139 0 0)
(1840.222 2.379868e-14 0 79.92742 0 0)
(1840.222 0 0 79.92743 0 0)
(1861.057 0 0 86.97617 0 0)
(1861.058 0 0 86.97618 0 0)
(1867.629 0 0 93.6805 0 0)
(1867.629 0 0 93.68051 0 0)
(1860.162 0 0 99.89289 0 0)
(1860.162 0 0 99.8929 0 0)
(1839.082 -2.572679e-14 0 105.4694 0 0)
(1839.082 2.572679e-14 0 105.4694 0 0)
(1804.993 -2.559059e-14 0 110.2733 0 0)
(1804.993 0 0 110.2733 0 0)
(1758.644 7.562571e-14 0 114.1794 0 0)
(1758.644 0 0 114.1794 0 0)
(1700.91 0 0 117.0771 0 0)
(1700.91 0 0 117.0771 0 0)
(1632.774 -4.750946e-14 0 118.8745 0 0)
(1632.774 0 0 118.8745 0 0)
(1555.32 0 0 119.5021 0 0)
(1555.32 0 0 119.5021 0 0)
(1469.723 -8.603209e-14 0 118.9154 0 0)
(1469.723 4.301604e-14 0 118.9153 0 0)
(1377.243 0 0 117.0979 0 0)
(1377.243 0 0 117.0978 0 0)
(1279.239 0 0 114.0647 0 0)
(1279.239 0 0 114.0646 0 0)
(1177.175 0 0 109.8663 0 0)
(1177.174 0 0 109.8663 0 0)
(1072.635 0 0 104.5929 0 0)
(1072.635 0 0 104.5928 0 0)
(967.3319 0 0 98.37701 0 0)
(967.3315 0 0 98.37697 0 0)
(863.0891 0 0 91.39544 0 0)
(863.0887 0 0 91.39539 0 0)
(761.8031 8.560373e-14 0 83.86609 0 0)
(761.8027 0 0 83.86605 0 0)
(665.3515 3.692004e-14 0 76.03881 0 0)
(665.3511 0 0 76.03877 0 0)
(575.4538 0 0 68.17773 0 0)
(575.4535 0 0 68.17769 0 0)
(493.4999 0 0 60.53619 0 0)
(493.4996 0 0 60.53616 0 0)
(420.3906 0 0 53.32912 0 0)
(420.3904 0 0 53.32909 0 0)
(356.4493 -3.716004e-14 0 46.71078 0 0)
(356.4491 0 0 46.71075 0 0)
(301.4415 -3.085315e-14 0 40.76524 0 0)
(301.4414 3.085314e-14 0 40.76522 0 0)
(254.6971 0 0 35.51158 0 0)
(254.697 0 0 35.51156 0 0)
(215.2838 0 0 30.91985 0 0)
(215.2837 0 0 30.91984 0 0)
(182.1757 0 0 26.93044 0 0)
(182.1756 0 0 26.93043 0 0)
(154.3766 0 0 23.47099 0 0)
(154.3766 0 0 23.47098 0 0)
(130.9907 0 0 20.46798 0 0)
(130.9907 0 0 20.46797 0 0)
(111.2501 2.003841e-14 0 17.85338 0 0)
(111.2501 -2.00384e-14 0 17.85337 0 0)
(94.5161 0 0 15.56743 0 0)
(94.51608 0 0 15.56743 0 0)
(80.26678 0 0 13.55929 0 0)
(80.26677 0 0 13.55929 0 0)
(68.07977 1.139143e-14 0 11.78647 0 0)
(68.07976 -1.139143e-14 0 11.78647 0 0)
(57.61739 0 0 10.21431 0 0)
(57.61739 0 0 10.21431 0 0)
(48.60644 0 0 8.81403 0 0)
(48.60644 0 0 8.81403 0 0)
(40.81013 0 0 7.55895 0 0)
(40.81013 0 0 7.558949 0 0)
(34.04484 2.036925e-14 0 6.431593 0 0)
(34.04484 0 0 6.431593 0 0)
(28.1631 0 0 5.41997 0 0)
(28.1631 8.165335e-15 0 5.41997 0 0)
(23.03646 0 0 4.511827 0 0)
(23.03646 0 0 4.511827 0 0)
(18.56558 0 0 3.697538 0 0)
(18.56558 0 0 3.697538 0 0)
(14.67776 0 0 2.970521 0 0)
(14.67776 7.707106e-15 0 2.970521 0 0)
(11.31283 0 0 2.325085 0 0)
(11.31283 0 0 2.325085 0 0)
(8.446226 0 0 1.761735 0 0)
(8.446226 0 0 1.761735 0 0)
(5.992045 0 0 1.267424 0 0)
(5.992045 0 0 1.267424 0 0)
(4.10423 0 0 0.8794201 0 0)
(4.10423 0 0 0.8794201 0 0)
(2.196765 0 0 0.4761542 0 0)
(2.196765 0 0 0.4761543 0 0)
(2.038611 0 0 0.44613 0 0)
(2.038611 0 0 0.44613 0 0)
(-0.7962224 -0 -0 -0.1754763 -0 -0)
(-0.7962219 -0 -0 -0.1754762 -0 -0)
(0.767322 5.912038e-16 0 0.1697634 0 0)
(0.7673222 0 0 0.1697635 0 0)
)
;

boundaryField
{
    leftandright
    {
        type            cyclic;
        value           nonuniform List<symmTensor> 
150
(
(0.007179388 0 0 8.111555e-07 0 0)
(0.3711679 0 0 0.0001907073 0 0)
(2.357286 0 0 0.002753363 0 0)
(8.062739 0 0 0.0161855 0 0)
(19.92933 0 0 0.05923226 0 0)
(39.98752 0 0 0.1605294 0 0)
(69.15081 4.891651e-33 0 0.3527625 0 0)
(107.0412 0 0 0.6651189 0 0)
(152.2032 2.551338e-17 0 1.117817 0 0)
(212.188 0 0 1.801621 0 0)
(302.5874 0 0 2.921447 0 0)
(402.6931 2.695605e-32 0 4.37387 0 0)
(510.6511 0 0 6.197663 0 0)
(624.4043 -1.558687e-31 0 8.430379 0 0)
(742.1359 0 0 11.11124 0 0)
(862.144 4.59779e-16 0 14.27802 0 0)
(982.7408 0 0 17.96323 0 0)
(1102.188 -1.29351e-15 0 22.19 0 0)
(1218.676 0 0 26.96797 0 0)
(1330.35 1.703641e-15 0 32.28975 0 0)
(1435.361 0 0 38.1284 0 0)
(1531.939 -4.244029e-15 0 44.43589 0 0)
(1618.47 -4.647096e-15 0 51.14305 0 0)
(1693.554 0 0 58.16053 0 0)
(1756.057 5.377084e-15 0 65.38088 0 0)
(1805.131 5.686824e-15 0 72.68139 0 0)
(1840.222 1.189934e-14 0 79.92742 0 0)
(1861.057 0 0 86.97618 0 0)
(1867.629 0 0 93.68051 0 0)
(1860.162 0 0 99.89289 0 0)
(1839.082 0 0 105.4694 0 0)
(1804.993 -1.279529e-14 0 110.2733 0 0)
(1758.644 3.781285e-14 0 114.1794 0 0)
(1700.91 0 0 117.0771 0 0)
(1632.774 -2.375473e-14 0 118.8745 0 0)
(1555.32 0 0 119.5021 0 0)
(1469.723 -2.150802e-14 0 118.9153 0 0)
(1377.243 0 0 117.0978 0 0)
(1279.239 0 0 114.0646 0 0)
(1177.174 0 0 109.8663 0 0)
(1072.635 0 0 104.5929 0 0)
(967.3317 0 0 98.37699 0 0)
(863.0889 0 0 91.39541 0 0)
(761.8029 4.280186e-14 0 83.86607 0 0)
(665.3513 1.846002e-14 0 76.03879 0 0)
(575.4536 0 0 68.17771 0 0)
(493.4997 0 0 60.53617 0 0)
(420.3905 0 0 53.3291 0 0)
(356.4492 -1.858001e-14 0 46.71077 0 0)
(301.4415 -3.416798e-29 0 40.76523 0 0)
(254.697 0 0 35.51157 0 0)
(215.2837 0 0 30.91984 0 0)
(182.1756 0 0 26.93044 0 0)
(154.3766 0 0 23.47098 0 0)
(130.9907 0 0 20.46798 0 0)
(111.2501 1.760479e-30 0 17.85338 0 0)
(94.51609 0 0 15.56743 0 0)
(80.26677 0 0 13.55929 0 0)
(68.07977 2.324472e-30 0 11.78647 0 0)
(57.61739 0 0 10.21431 0 0)
(48.60644 0 0 8.81403 0 0)
(40.81013 0 0 7.558949 0 0)
(34.04484 1.018463e-14 0 6.431593 0 0)
(28.1631 4.082668e-15 0 5.41997 0 0)
(23.03646 0 0 4.511827 0 0)
(18.56558 0 0 3.697538 0 0)
(14.67776 3.853553e-15 0 2.970521 0 0)
(11.31283 0 0 2.325085 0 0)
(8.446226 0 0 1.761735 0 0)
(5.992045 0 0 1.267424 0 0)
(4.10423 0 0 0.8794201 0 0)
(2.196765 0 0 0.4761542 0 0)
(2.038611 0 0 0.44613 0 0)
(-0.7962222 -0 -0 -0.1754763 -0 -0)
(0.7673221 2.95602e-16 0 0.1697635 0 0)
(0.007179388 0 0 8.111555e-07 0 0)
(0.3711679 0 0 0.0001907073 0 0)
(2.357286 0 0 0.002753363 0 0)
(8.062739 0 0 0.0161855 0 0)
(19.92933 0 0 0.05923226 0 0)
(39.98752 0 0 0.1605294 0 0)
(69.15081 5.435168e-33 0 0.3527625 0 0)
(107.0412 0 0 0.6651189 0 0)
(152.2032 2.551338e-17 0 1.117817 0 0)
(212.188 0 0 1.801621 0 0)
(302.5874 0 0 2.921447 0 0)
(402.6931 2.695605e-32 0 4.37387 0 0)
(510.6511 0 0 6.197663 0 0)
(624.4043 -1.558687e-31 0 8.430379 0 0)
(742.1359 0 0 11.11124 0 0)
(862.144 4.59779e-16 0 14.27802 0 0)
(982.7408 0 0 17.96323 0 0)
(1102.188 -1.29351e-15 0 22.19 0 0)
(1218.676 0 0 26.96797 0 0)
(1330.35 1.703641e-15 0 32.28975 0 0)
(1435.361 0 0 38.1284 0 0)
(1531.939 -4.244029e-15 0 44.43589 0 0)
(1618.47 -4.647096e-15 0 51.14305 0 0)
(1693.554 0 0 58.16053 0 0)
(1756.057 5.377084e-15 0 65.38088 0 0)
(1805.131 5.686824e-15 0 72.68139 0 0)
(1840.222 1.189934e-14 0 79.92742 0 0)
(1861.057 0 0 86.97618 0 0)
(1867.629 0 0 93.68051 0 0)
(1860.162 0 0 99.89289 0 0)
(1839.082 0 0 105.4694 0 0)
(1804.993 -1.279529e-14 0 110.2733 0 0)
(1758.644 3.781285e-14 0 114.1794 0 0)
(1700.91 0 0 117.0771 0 0)
(1632.774 -2.375473e-14 0 118.8745 0 0)
(1555.32 0 0 119.5021 0 0)
(1469.723 -2.150802e-14 0 118.9153 0 0)
(1377.243 0 0 117.0978 0 0)
(1279.239 0 0 114.0646 0 0)
(1177.174 0 0 109.8663 0 0)
(1072.635 0 0 104.5929 0 0)
(967.3317 0 0 98.37699 0 0)
(863.0889 0 0 91.39541 0 0)
(761.8029 4.280186e-14 0 83.86607 0 0)
(665.3513 1.846002e-14 0 76.03879 0 0)
(575.4536 0 0 68.17771 0 0)
(493.4997 0 0 60.53617 0 0)
(420.3905 0 0 53.3291 0 0)
(356.4492 -1.858001e-14 0 46.71077 0 0)
(301.4415 -3.416798e-29 0 40.76523 0 0)
(254.697 0 0 35.51157 0 0)
(215.2837 0 0 30.91984 0 0)
(182.1756 0 0 26.93044 0 0)
(154.3766 0 0 23.47098 0 0)
(130.9907 0 0 20.46798 0 0)
(111.2501 1.760479e-30 0 17.85338 0 0)
(94.51609 0 0 15.56743 0 0)
(80.26677 0 0 13.55929 0 0)
(68.07977 2.324472e-30 0 11.78647 0 0)
(57.61739 0 0 10.21431 0 0)
(48.60644 0 0 8.81403 0 0)
(40.81013 0 0 7.558949 0 0)
(34.04484 1.018463e-14 0 6.431593 0 0)
(28.1631 4.082668e-15 0 5.41997 0 0)
(23.03646 0 0 4.511827 0 0)
(18.56558 0 0 3.697538 0 0)
(14.67776 3.853553e-15 0 2.970521 0 0)
(11.31283 0 0 2.325085 0 0)
(8.446226 0 0 1.761735 0 0)
(5.992045 0 0 1.267424 0 0)
(4.10423 0 0 0.8794201 0 0)
(2.196765 0 0 0.4761542 0 0)
(2.038611 0 0 0.44613 0 0)
(-0.7962222 -0 -0 -0.1754763 -0 -0)
(0.7673221 2.95602e-16 0 0.1697635 0 0)
)
;
    }
    wall
    {
        type            calculated;
        value           nonuniform List<symmTensor> 2((5.461673e-07 0 0 3.00392e-07 0 0) (5.461673e-07 0 0 3.00392e-07 0 0));
    }
    frontAndBack
    {
        type            empty;
    }
    middle
    {
        type            symmetryPlane;
        value           nonuniform List<symmTensor> 2((0.767322 0 0 0.1697634 0 0) (0.7673222 0 0 0.1697635 0 0));
    }
}


// ************************************************************************* //
