/*--------------------------------*- C++ -*----------------------------------*\
| =========                 |                                                 |
| \\      /  F ield         | foam-extend: Open Source CFD                    |
|  \\    /   O peration     | Version:     4.0                                |
|   \\  /    A nd           | Web:         http://www.foam-extend.org         |
|    \\/     M anipulation  |                                                 |
\*---------------------------------------------------------------------------*/
FoamFile
{
    version     2.0;
    format      ascii;
    class       volScalarField;
    location    "10000";
    object      nut;
}
// * * * * * * * * * * * * * * * * * * * * * * * * * * * * * * * * * * * * * //

dimensions      [0 2 -1 0 0 0 0];

internalField   nonuniform List<scalar> 
150
(
1.026176e-08
1.026176e-08
5.314593e-07
5.314593e-07
3.384559e-06
3.38456e-06
1.163306e-05
1.163306e-05
2.899542e-05
2.899543e-05
5.892131e-05
5.892131e-05
0.0001036405
0.0001036405
0.000163715
0.000163715
0.0002383537
0.0002383537
0.0003431009
0.0003431009
0.0005112915
0.0005112915
0.0007167022
0.0007167023
0.0009604663
0.0009604664
0.001244354
0.001244354
0.001570659
0.001570659
0.001942072
0.001942072
0.00236158
0.00236158
0.002832397
0.002832398
0.00335791
0.003357911
0.003941626
0.003941626
0.00458713
0.00458713
0.005298038
0.005298039
0.006077956
0.006077956
0.006930424
0.006930425
0.007858871
0.007858871
0.008866557
0.008866557
0.009956516
0.009956517
0.0111315
0.0111315
0.01239391
0.01239391
0.01374574
0.01374574
0.01518852
0.01518852
0.01672327
0.01672327
0.01835045
0.01835045
0.02006994
0.02006994
0.02188108
0.02188108
0.02378263
0.02378263
0.02577281
0.02577281
0.02784917
0.02784917
0.03000867
0.03000867
0.03224764
0.03224765
0.03456186
0.03456186
0.03694659
0.03694659
0.0393967
0.0393967
0.04190671
0.04190671
0.04447091
0.04447091
0.04708342
0.04708342
0.04973822
0.04973822
0.0524292
0.0524292
0.05515012
0.05515013
0.05789466
0.05789466
0.06065634
0.06065634
0.06342856
0.06342856
0.06620459
0.06620459
0.06897756
0.06897756
0.07174041
0.07174041
0.07448575
0.07448576
0.07720566
0.07720566
0.07989109
0.07989109
0.08253107
0.08253107
0.08511118
0.08511118
0.08761106
0.08761106
0.09000046
0.09000046
0.09227764
0.09227764
0.09447838
0.09447838
0.09664513
0.09664513
0.09882715
0.09882715
0.1010786
0.1010786
0.1034533
0.1034533
0.1059948
0.1059948
0.1087193
0.1087193
0.111591
0.111591
0.1144931
0.1144931
0.1172042
0.1172042
0.1193932
0.1193932
0.1206704
0.1206704
)
;

boundaryField
{
    leftandright
    {
        type            cyclic;
        value           nonuniform List<scalar> 
150
(
1.026176e-08
5.314593e-07
3.384559e-06
1.163306e-05
2.899543e-05
5.892131e-05
0.0001036405
0.000163715
0.0002383537
0.0003431009
0.0005112915
0.0007167022
0.0009604664
0.001244354
0.001570659
0.001942072
0.00236158
0.002832398
0.00335791
0.003941626
0.00458713
0.005298038
0.006077956
0.006930424
0.007858871
0.008866557
0.009956516
0.0111315
0.01239391
0.01374574
0.01518852
0.01672327
0.01835045
0.02006994
0.02188108
0.02378263
0.02577281
0.02784917
0.03000867
0.03224765
0.03456186
0.03694659
0.0393967
0.04190671
0.04447091
0.04708342
0.04973822
0.0524292
0.05515012
0.05789466
0.06065634
0.06342856
0.06620459
0.06897756
0.07174041
0.07448575
0.07720566
0.07989109
0.08253107
0.08511118
0.08761106
0.09000046
0.09227764
0.09447838
0.09664513
0.09882715
0.1010786
0.1034533
0.1059948
0.1087193
0.111591
0.1144931
0.1172042
0.1193932
0.1206704
1.026176e-08
5.314593e-07
3.384559e-06
1.163306e-05
2.899543e-05
5.892131e-05
0.0001036405
0.000163715
0.0002383537
0.0003431009
0.0005112915
0.0007167022
0.0009604664
0.001244354
0.001570659
0.001942072
0.00236158
0.002832398
0.00335791
0.003941626
0.00458713
0.005298038
0.006077956
0.006930424
0.007858871
0.008866557
0.009956516
0.0111315
0.01239391
0.01374574
0.01518852
0.01672327
0.01835045
0.02006994
0.02188108
0.02378263
0.02577281
0.02784917
0.03000867
0.03224765
0.03456186
0.03694659
0.0393967
0.04190671
0.04447091
0.04708342
0.04973822
0.0524292
0.05515012
0.05789466
0.06065634
0.06342856
0.06620459
0.06897756
0.07174041
0.07448575
0.07720566
0.07989109
0.08253107
0.08511118
0.08761106
0.09000046
0.09227764
0.09447838
0.09664513
0.09882715
0.1010786
0.1034533
0.1059948
0.1087193
0.111591
0.1144931
0.1172042
0.1193932
0.1206704
)
;
    }
    wall
    {
        type            nutLowReWallFunction;
        Cmu             0.09;
        kappa           0.41;
        E               9.8;
        value           nonuniform List<scalar> 2(7.80099e-13 7.80099e-13);
    }
    frontAndBack
    {
        type            empty;
    }
    middle
    {
        type            symmetryPlane;
        value           nonuniform List<scalar> 2(0.1206704 0.1206704);
    }
}


// ************************************************************************* //
