/*--------------------------------*- C++ -*----------------------------------*\
| =========                 |                                                 |
| \\      /  F ield         | foam-extend: Open Source CFD                    |
|  \\    /   O peration     | Version:     4.0                                |
|   \\  /    A nd           | Web:         http://www.foam-extend.org         |
|    \\/     M anipulation  |                                                 |
\*---------------------------------------------------------------------------*/
FoamFile
{
    version     2.0;
    format      ascii;
    class       volSymmTensorField;
    location    "10000";
    object      RStress;
}
// * * * * * * * * * * * * * * * * * * * * * * * * * * * * * * * * * * * * * //

dimensions      [0 2 -2 0 0 0 0];

internalField   nonuniform List<symmTensor> 
150
(
(0.01145377 -4.210367e-06 0 1.266707e-06 0 0.0008788589)
(0.01145377 -4.210368e-06 0 1.266707e-06 0 0.0008788589)
(0.1220386 -0.0002176735 0 6.140471e-05 0 0.009370185)
(0.1220386 -0.0002176735 0 6.140472e-05 0 0.009370186)
(0.322103 -0.001382163 0 0.0003686964 0 0.02475957)
(0.322103 -0.001382163 0 0.0003686965 0 0.02475957)
(0.6130397 -0.004725064 0 0.001207125 0 0.04720137)
(0.6130397 -0.004725064 0 0.001207125 0 0.04720137)
(0.9953018 -0.01166788 0 0.002904709 0 0.0768031)
(0.9953018 -0.01166788 0 0.002904709 0 0.07680311)
(1.466908 -0.02336732 0 0.005789239 0 0.1135105)
(1.466908 -0.02336732 0 0.005789239 0 0.1135105)
(2.022147 -0.04026603 0 0.01015372 0 0.1569964)
(2.022147 -0.04026603 0 0.01015372 0 0.1569964)
(2.651194 -0.06193833 0 0.01623626 0 0.2066162)
(2.651194 -0.06193833 0 0.01623626 0 0.2066162)
(3.340884 -0.08720081 0 0.02421537 0 0.2614908)
(3.340884 -0.08720081 0 0.02421537 0 0.2614908)
(4.074142 -0.1199143 0 0.03418697 0 0.3205172)
(4.074142 -0.1199143 0 0.03418698 0 0.3205172)
(4.81068 -0.1680293 0 0.04608726 0 0.3940534)
(4.81068 -0.1680293 0 0.04608726 0 0.3940534)
(5.513117 -0.2188275 0 0.05976189 0 0.4795786)
(5.513117 -0.2188275 0 0.0597619 0 0.4795786)
(6.161251 -0.2703672 0 0.07506606 0 0.5673021)
(6.161252 -0.2703672 0 0.07506607 0 0.5673022)
(6.734721 -0.3209208 0 0.09182651 0 0.6549771)
(6.734721 -0.3209209 0 0.09182652 0 0.6549771)
(7.220913 -0.3692602 0 0.1098562 0 0.740668)
(7.220914 -0.3692603 0 0.1098562 0 0.740668)
(7.614353 -0.414572 0 0.1289637 0 0.8228214)
(7.614354 -0.414572 0 0.1289637 0 0.8228215)
(7.915426 -0.4563759 0 0.1489617 0 0.9002823)
(7.915426 -0.4563759 0 0.1489617 0 0.9002823)
(8.128871 -0.4944518 0 0.1696743 0 0.9722712)
(8.128871 -0.4944518 0 0.1696743 0 0.9722712)
(8.262318 -0.5287751 0 0.1909401 0 1.038338)
(8.262318 -0.5287751 0 0.1909401 0 1.038338)
(8.325028 -0.5594617 0 0.2126145 0 1.098302)
(8.325028 -0.5594617 0 0.2126145 0 1.098302)
(8.326899 -0.5867213 0 0.2345698 0 1.152196)
(8.3269 -0.5867213 0 0.2345699 0 1.152196)
(8.277756 -0.6108202 0 0.2566942 0 1.200207)
(8.277756 -0.6108202 0 0.2566943 0 1.200207)
(8.186864 -0.6320514 0 0.2788902 0 1.242628)
(8.186864 -0.6320515 0 0.2788902 0 1.242628)
(8.062647 -0.6507132 0 0.3010725 0 1.279819)
(8.062647 -0.6507132 0 0.3010725 0 1.279819)
(7.912552 -0.6670928 0 0.3231662 0 1.312175)
(7.912552 -0.6670928 0 0.3231662 0 1.312175)
(7.743008 -0.6814567 0 0.3451048 0 1.340105)
(7.743008 -0.6814567 0 0.3451048 0 1.340105)
(7.559461 -0.6940444 0 0.3668283 0 1.364008)
(7.559461 -0.6940444 0 0.3668283 0 1.364008)
(7.366446 -0.7050655 0 0.3882817 0 1.384271)
(7.366446 -0.7050655 0 0.3882817 0 1.384271)
(7.167674 -0.7146996 0 0.4094138 0 1.401251)
(7.167674 -0.7146996 0 0.4094138 0 1.401251)
(6.966137 -0.723097 0 0.4301761 0 1.415277)
(6.966137 -0.723097 0 0.4301762 0 1.415277)
(6.764204 -0.7303811 0 0.4505221 0 1.426647)
(6.764204 -0.7303811 0 0.4505222 0 1.426648)
(6.563713 -0.736651 0 0.4704067 0 1.435626)
(6.563713 -0.736651 0 0.4704067 0 1.435626)
(6.366052 -0.7419839 0 0.4897858 0 1.442446)
(6.366052 -0.7419839 0 0.4897858 0 1.442446)
(6.17223 -0.7464382 0 0.5086168 0 1.447308)
(6.17223 -0.7464382 0 0.5086168 0 1.447308)
(5.982945 -0.7500557 0 0.5268586 0 1.450385)
(5.982945 -0.7500557 0 0.5268587 0 1.450385)
(5.798628 -0.7528648 0 0.544472 0 1.451822)
(5.798628 -0.7528648 0 0.544472 0 1.451822)
(5.619499 -0.7548809 0 0.5614179 0 1.451738)
(5.619499 -0.7548809 0 0.561418 0 1.451738)
(5.445604 -0.7561078 0 0.5776563 0 1.450224)
(5.445604 -0.7561078 0 0.5776563 0 1.450224)
(5.276851 -0.7565391 0 0.5931448 0 1.447344)
(5.276851 -0.7565391 0 0.5931449 0 1.447344)
(5.113033 -0.7561591 0 0.6078382 0 1.443139)
(5.113033 -0.7561591 0 0.6078383 0 1.443139)
(4.953858 -0.7549434 0 0.6216882 0 1.437629)
(4.953858 -0.7549434 0 0.6216882 0 1.437629)
(4.798965 -0.7528599 0 0.634643 0 1.430809)
(4.798965 -0.7528599 0 0.634643 0 1.430809)
(4.647945 -0.7498697 0 0.6466481 0 1.422661)
(4.647945 -0.7498696 0 0.6466481 0 1.422661)
(4.500361 -0.7459291 0 0.6576464 0 1.41315)
(4.500361 -0.745929 0 0.6576464 0 1.41315)
(4.355765 -0.7409927 0 0.6675791 0 1.402231)
(4.355765 -0.7409927 0 0.6675791 0 1.402231)
(4.21372 -0.7350174 0 0.6763869 0 1.389853)
(4.21372 -0.7350174 0 0.6763869 0 1.389853)
(4.073816 -0.7279668 0 0.6840108 0 1.375964)
(4.073816 -0.7279667 0 0.6840108 0 1.375964)
(3.935683 -0.7198147 0 0.690394 0 1.360514)
(3.935683 -0.7198147 0 0.690394 0 1.360514)
(3.79901 -0.7105478 0 0.6954824 0 1.34346)
(3.79901 -0.7105478 0 0.6954824 0 1.34346)
(3.663542 -0.7001638 0 0.6992262 0 1.324768)
(3.663542 -0.7001638 0 0.6992262 0 1.324768)
(3.529089 -0.6886686 0 0.7015804 0 1.304417)
(3.529089 -0.6886686 0 0.7015804 0 1.304417)
(3.395521 -0.6760715 0 0.7025056 0 1.282396)
(3.395521 -0.6760714 0 0.7025056 0 1.282396)
(3.262764 -0.6623802 0 0.7019678 0 1.258707)
(3.262764 -0.6623801 0 0.7019678 0 1.258707)
(3.130795 -0.647598 0 0.6999377 0 1.233363)
(3.130795 -0.6475979 0 0.6999377 0 1.233363)
(2.99964 -0.6317216 0 0.6963902 0 1.206388)
(2.99964 -0.6317216 0 0.6963902 0 1.206388)
(2.869374 -0.6147405 0 0.6913021 0 1.177814)
(2.869374 -0.6147405 0 0.6913021 0 1.177814)
(2.740125 -0.596637 0 0.6846503 0 1.147682)
(2.740125 -0.596637 0 0.6846503 0 1.147682)
(2.612077 -0.5773866 0 0.6764078 0 1.116042)
(2.612077 -0.5773866 0 0.6764078 0 1.116042)
(2.485486 -0.5569588 0 0.6665386 0 1.082945)
(2.485486 -0.5569588 0 0.6665385 0 1.082945)
(2.36069 -0.5353174 0 0.6549812 0 1.048446)
(2.36069 -0.5353174 0 0.6549812 0 1.048446)
(2.238133 -0.512421 0 0.6416477 0 1.012595)
(2.238133 -0.512421 0 0.6416477 0 1.012595)
(2.118388 -0.4881692 0 0.6264189 0 0.9754265)
(2.118388 -0.4881692 0 0.6264189 0 0.9754265)
(2.001754 -0.4625165 0 0.6093828 0 0.9371252)
(2.001754 -0.4625165 0 0.6093828 0 0.9371251)
(1.888304 -0.4354609 0 0.5908577 0 0.8980423)
(1.888304 -0.4354609 0 0.5908577 0 0.8980423)
(1.7783 -0.4069475 0 0.5712016 0 0.8585746)
(1.7783 -0.4069475 0 0.5712016 0 0.8585746)
(1.672209 -0.3769171 0 0.5508085 0 0.8191789)
(1.672209 -0.3769171 0 0.5508085 0 0.8191789)
(1.570721 -0.3453059 0 0.5300916 0 0.7803843)
(1.570721 -0.3453059 0 0.5300916 0 0.7803843)
(1.474745 -0.3120437 0 0.5095539 0 0.7427977)
(1.474745 -0.3120437 0 0.5095539 0 0.7427977)
(1.385407 -0.2770519 0 0.4895584 0 0.707102)
(1.385407 -0.2770519 0 0.4895584 0 0.707102)
(1.304017 -0.240239 0 0.4711569 0 0.6740441)
(1.304017 -0.2402391 0 0.4711569 0 0.6740441)
(1.232022 -0.2014973 0 0.4531258 0 0.6444131)
(1.232022 -0.2014973 0 0.4531258 0 0.6444131)
(1.17096 -0.1606975 0 0.4420463 0 0.6190187)
(1.17096 -0.1606975 0 0.4420463 0 0.6190187)
(1.122403 -0.1176983 0 0.4186322 0 0.5986654)
(1.122403 -0.1176983 0 0.4186322 0 0.5986654)
(1.08807 -0.07235443 0 0.4342958 0 0.5841909)
(1.08807 -0.07235447 0 0.4342958 0 0.5841909)
(1.069699 -0.02454378 0 0.4059577 0 0.576423)
(1.069699 -0.02454382 0 0.4059577 0 0.576423)
)
;

boundaryField
{
    leftandright
    {
        type            cyclic;
        value           nonuniform List<symmTensor> 
150
(
(0.01145377 -4.210367e-06 0 1.266707e-06 0 0.0008788589)
(0.1220386 -0.0002176735 0 6.140472e-05 0 0.009370186)
(0.322103 -0.001382163 0 0.0003686964 0 0.02475957)
(0.6130397 -0.004725064 0 0.001207125 0 0.04720137)
(0.9953018 -0.01166788 0 0.002904709 0 0.07680311)
(1.466908 -0.02336732 0 0.005789239 0 0.1135105)
(2.022147 -0.04026603 0 0.01015372 0 0.1569964)
(2.651194 -0.06193833 0 0.01623626 0 0.2066162)
(3.340884 -0.08720081 0 0.02421537 0 0.2614908)
(4.074142 -0.1199143 0 0.03418698 0 0.3205172)
(4.81068 -0.1680293 0 0.04608726 0 0.3940534)
(5.513117 -0.2188275 0 0.0597619 0 0.4795786)
(6.161252 -0.2703672 0 0.07506607 0 0.5673021)
(6.734721 -0.3209208 0 0.09182652 0 0.6549771)
(7.220914 -0.3692602 0 0.1098562 0 0.740668)
(7.614353 -0.414572 0 0.1289637 0 0.8228214)
(7.915426 -0.4563759 0 0.1489617 0 0.9002823)
(8.128871 -0.4944518 0 0.1696743 0 0.9722712)
(8.262318 -0.5287751 0 0.1909401 0 1.038338)
(8.325028 -0.5594617 0 0.2126145 0 1.098302)
(8.326899 -0.5867213 0 0.2345698 0 1.152196)
(8.277756 -0.6108202 0 0.2566943 0 1.200207)
(8.186864 -0.6320515 0 0.2788902 0 1.242628)
(8.062647 -0.6507132 0 0.3010725 0 1.279819)
(7.912552 -0.6670928 0 0.3231662 0 1.312175)
(7.743008 -0.6814567 0 0.3451048 0 1.340105)
(7.559461 -0.6940444 0 0.3668283 0 1.364008)
(7.366446 -0.7050655 0 0.3882817 0 1.384271)
(7.167674 -0.7146996 0 0.4094138 0 1.401251)
(6.966137 -0.723097 0 0.4301762 0 1.415277)
(6.764204 -0.7303811 0 0.4505221 0 1.426648)
(6.563713 -0.736651 0 0.4704067 0 1.435626)
(6.366052 -0.7419839 0 0.4897858 0 1.442446)
(6.17223 -0.7464382 0 0.5086168 0 1.447308)
(5.982945 -0.7500557 0 0.5268586 0 1.450385)
(5.798628 -0.7528648 0 0.544472 0 1.451822)
(5.619499 -0.7548809 0 0.5614179 0 1.451738)
(5.445604 -0.7561078 0 0.5776563 0 1.450224)
(5.276851 -0.7565391 0 0.5931448 0 1.447344)
(5.113033 -0.7561591 0 0.6078383 0 1.443139)
(4.953858 -0.7549434 0 0.6216882 0 1.437629)
(4.798965 -0.7528599 0 0.634643 0 1.430809)
(4.647945 -0.7498696 0 0.6466481 0 1.422661)
(4.500361 -0.745929 0 0.6576464 0 1.41315)
(4.355765 -0.7409927 0 0.6675791 0 1.402231)
(4.21372 -0.7350174 0 0.6763869 0 1.389853)
(4.073816 -0.7279668 0 0.6840108 0 1.375964)
(3.935683 -0.7198147 0 0.690394 0 1.360514)
(3.79901 -0.7105478 0 0.6954824 0 1.34346)
(3.663542 -0.7001638 0 0.6992262 0 1.324768)
(3.529089 -0.6886686 0 0.7015804 0 1.304417)
(3.395521 -0.6760715 0 0.7025056 0 1.282396)
(3.262764 -0.6623801 0 0.7019678 0 1.258707)
(3.130795 -0.6475979 0 0.6999377 0 1.233363)
(2.99964 -0.6317216 0 0.6963902 0 1.206388)
(2.869374 -0.6147405 0 0.6913021 0 1.177814)
(2.740125 -0.596637 0 0.6846503 0 1.147682)
(2.612077 -0.5773866 0 0.6764078 0 1.116042)
(2.485486 -0.5569588 0 0.6665385 0 1.082945)
(2.36069 -0.5353174 0 0.6549812 0 1.048446)
(2.238133 -0.512421 0 0.6416477 0 1.012595)
(2.118388 -0.4881692 0 0.6264189 0 0.9754265)
(2.001754 -0.4625165 0 0.6093828 0 0.9371251)
(1.888304 -0.4354609 0 0.5908577 0 0.8980423)
(1.7783 -0.4069475 0 0.5712016 0 0.8585746)
(1.672209 -0.3769171 0 0.5508085 0 0.8191789)
(1.570721 -0.3453059 0 0.5300916 0 0.7803843)
(1.474745 -0.3120437 0 0.5095539 0 0.7427977)
(1.385407 -0.2770519 0 0.4895584 0 0.707102)
(1.304017 -0.2402391 0 0.4711569 0 0.6740441)
(1.232022 -0.2014973 0 0.4531258 0 0.6444131)
(1.17096 -0.1606975 0 0.4420463 0 0.6190187)
(1.122403 -0.1176983 0 0.4186322 0 0.5986654)
(1.08807 -0.07235445 0 0.4342958 0 0.5841909)
(1.069699 -0.0245438 0 0.4059577 0 0.576423)
(0.01145377 -4.210367e-06 0 1.266707e-06 0 0.0008788589)
(0.1220386 -0.0002176735 0 6.140472e-05 0 0.009370186)
(0.322103 -0.001382163 0 0.0003686964 0 0.02475957)
(0.6130397 -0.004725064 0 0.001207125 0 0.04720137)
(0.9953018 -0.01166788 0 0.002904709 0 0.07680311)
(1.466908 -0.02336732 0 0.005789239 0 0.1135105)
(2.022147 -0.04026603 0 0.01015372 0 0.1569964)
(2.651194 -0.06193833 0 0.01623626 0 0.2066162)
(3.340884 -0.08720081 0 0.02421537 0 0.2614908)
(4.074142 -0.1199143 0 0.03418698 0 0.3205172)
(4.81068 -0.1680293 0 0.04608726 0 0.3940534)
(5.513117 -0.2188275 0 0.0597619 0 0.4795786)
(6.161252 -0.2703672 0 0.07506607 0 0.5673021)
(6.734721 -0.3209208 0 0.09182652 0 0.6549771)
(7.220914 -0.3692602 0 0.1098562 0 0.740668)
(7.614353 -0.414572 0 0.1289637 0 0.8228214)
(7.915426 -0.4563759 0 0.1489617 0 0.9002823)
(8.128871 -0.4944518 0 0.1696743 0 0.9722712)
(8.262318 -0.5287751 0 0.1909401 0 1.038338)
(8.325028 -0.5594617 0 0.2126145 0 1.098302)
(8.326899 -0.5867213 0 0.2345698 0 1.152196)
(8.277756 -0.6108202 0 0.2566943 0 1.200207)
(8.186864 -0.6320515 0 0.2788902 0 1.242628)
(8.062647 -0.6507132 0 0.3010725 0 1.279819)
(7.912552 -0.6670928 0 0.3231662 0 1.312175)
(7.743008 -0.6814567 0 0.3451048 0 1.340105)
(7.559461 -0.6940444 0 0.3668283 0 1.364008)
(7.366446 -0.7050655 0 0.3882817 0 1.384271)
(7.167674 -0.7146996 0 0.4094138 0 1.401251)
(6.966137 -0.723097 0 0.4301762 0 1.415277)
(6.764204 -0.7303811 0 0.4505221 0 1.426648)
(6.563713 -0.736651 0 0.4704067 0 1.435626)
(6.366052 -0.7419839 0 0.4897858 0 1.442446)
(6.17223 -0.7464382 0 0.5086168 0 1.447308)
(5.982945 -0.7500557 0 0.5268586 0 1.450385)
(5.798628 -0.7528648 0 0.544472 0 1.451822)
(5.619499 -0.7548809 0 0.5614179 0 1.451738)
(5.445604 -0.7561078 0 0.5776563 0 1.450224)
(5.276851 -0.7565391 0 0.5931448 0 1.447344)
(5.113033 -0.7561591 0 0.6078383 0 1.443139)
(4.953858 -0.7549434 0 0.6216882 0 1.437629)
(4.798965 -0.7528599 0 0.634643 0 1.430809)
(4.647945 -0.7498696 0 0.6466481 0 1.422661)
(4.500361 -0.745929 0 0.6576464 0 1.41315)
(4.355765 -0.7409927 0 0.6675791 0 1.402231)
(4.21372 -0.7350174 0 0.6763869 0 1.389853)
(4.073816 -0.7279668 0 0.6840108 0 1.375964)
(3.935683 -0.7198147 0 0.690394 0 1.360514)
(3.79901 -0.7105478 0 0.6954824 0 1.34346)
(3.663542 -0.7001638 0 0.6992262 0 1.324768)
(3.529089 -0.6886686 0 0.7015804 0 1.304417)
(3.395521 -0.6760715 0 0.7025056 0 1.282396)
(3.262764 -0.6623801 0 0.7019678 0 1.258707)
(3.130795 -0.6475979 0 0.6999377 0 1.233363)
(2.99964 -0.6317216 0 0.6963902 0 1.206388)
(2.869374 -0.6147405 0 0.6913021 0 1.177814)
(2.740125 -0.596637 0 0.6846503 0 1.147682)
(2.612077 -0.5773866 0 0.6764078 0 1.116042)
(2.485486 -0.5569588 0 0.6665385 0 1.082945)
(2.36069 -0.5353174 0 0.6549812 0 1.048446)
(2.238133 -0.512421 0 0.6416477 0 1.012595)
(2.118388 -0.4881692 0 0.6264189 0 0.9754265)
(2.001754 -0.4625165 0 0.6093828 0 0.9371251)
(1.888304 -0.4354609 0 0.5908577 0 0.8980423)
(1.7783 -0.4069475 0 0.5712016 0 0.8585746)
(1.672209 -0.3769171 0 0.5508085 0 0.8191789)
(1.570721 -0.3453059 0 0.5300916 0 0.7803843)
(1.474745 -0.3120437 0 0.5095539 0 0.7427977)
(1.385407 -0.2770519 0 0.4895584 0 0.707102)
(1.304017 -0.2402391 0 0.4711569 0 0.6740441)
(1.232022 -0.2014973 0 0.4531258 0 0.6444131)
(1.17096 -0.1606975 0 0.4420463 0 0.6190187)
(1.122403 -0.1176983 0 0.4186322 0 0.5986654)
(1.08807 -0.07235445 0 0.4342958 0 0.5841909)
(1.069699 -0.0245438 0 0.4059577 0 0.576423)
)
;
    }
    wall
    {
        type            calculated;
        value           nonuniform List<symmTensor> 2((3.333333e-11 -3.20301e-10 0 9.998797e-11 0 6.666667e-11) (3.333333e-11 -3.20301e-10 0 9.998797e-11 0 6.666667e-11));
    }
    frontAndBack
    {
        type            empty;
    }
    middle
    {
        type            symmetryPlane;
        value           nonuniform List<symmTensor> 2((1.069699 0 0 0.5020033 0 0.576423) (1.069699 0 0 0.5020033 0 0.576423));
    }
}


// ************************************************************************* //
