/*--------------------------------*- C++ -*----------------------------------*\
| =========                 |                                                 |
| \\      /  F ield         | foam-extend: Open Source CFD                    |
|  \\    /   O peration     | Version:     4.0                                |
|   \\  /    A nd           | Web:         http://www.foam-extend.org         |
|    \\/     M anipulation  |                                                 |
\*---------------------------------------------------------------------------*/
FoamFile
{
    version     2.0;
    format      ascii;
    class       volScalarField;
    location    "10000";
    object      trC;
}
// * * * * * * * * * * * * * * * * * * * * * * * * * * * * * * * * * * * * * //

dimensions      [0 0 0 0 0 0 0];

internalField   nonuniform List<scalar> 
150
(
336.4977
336.4977
336.2055
336.2055
335.6234
335.6234
334.6633
334.6633
333.201
333.201
331.1479
331.1479
328.5004
328.5004
325.3131
325.3131
321.4981
321.4981
316.6937
316.6937
310.7757
310.7757
304.023
304.023
297.0084
297.0084
290.0057
290.0057
283.1343
283.1343
276.4355
276.4356
269.9088
269.9088
263.5277
263.5277
257.251
257.251
251.0303
251.0303
244.8165
244.8166
238.5645
238.5645
232.2352
232.2352
225.7975
225.7975
219.2273
219.2273
212.5067
212.5067
205.6228
205.6228
198.5664
198.5664
191.3308
191.3308
183.9112
183.9112
176.3044
176.3044
168.5086
168.5085
160.524
160.524
152.3533
152.3533
144.0028
144.0028
135.4837
135.4837
126.8134
126.8134
118.0172
118.0171
109.1302
109.1302
100.2002
100.2002
91.28969
91.28965
82.47778
82.47775
73.86078
73.86074
65.54986
65.54982
57.66487
57.66483
50.32326
50.32323
43.62548
43.62545
37.64019
37.64016
32.39445
32.39443
27.87252
27.8725
24.02354
24.02353
20.77448
20.77447
18.04337
18.04337
15.74965
15.74965
13.82018
13.82018
12.19187
12.19186
10.812
10.812
9.63737
9.637369
8.632936
8.632935
7.770638
7.770637
7.027753
7.027752
6.384628
6.384627
5.826055
5.826055
5.339897
5.339897
4.915624
4.915624
4.545115
4.545115
4.22246
4.22246
3.942809
3.942809
3.704234
3.704234
3.499838
3.499838
3.342261
3.342261
3.183686
3.183686
3.169277
3.169277
3
3
3.063606
3.063606
)
;

boundaryField
{
    leftandright
    {
        type            cyclic;
        value           nonuniform List<scalar> 
150
(
336.4977
336.2055
335.6234
334.6633
333.201
331.1479
328.5004
325.3131
321.4981
316.6937
310.7757
304.023
297.0084
290.0057
283.1343
276.4355
269.9088
263.5277
257.251
251.0303
244.8166
238.5645
232.2352
225.7975
219.2273
212.5067
205.6228
198.5664
191.3308
183.9112
176.3044
168.5086
160.524
152.3533
144.0028
135.4837
126.8134
118.0172
109.1302
100.2002
91.28967
82.47777
73.86076
65.54984
57.66485
50.32325
43.62546
37.64018
32.39444
27.87251
24.02354
20.77447
18.04337
15.74965
13.82018
12.19186
10.812
9.637369
8.632936
7.770637
7.027753
6.384628
5.826055
5.339897
4.915624
4.545115
4.22246
3.942809
3.704234
3.499838
3.342261
3.183686
3.169277
3
3.063606
336.4977
336.2055
335.6234
334.6633
333.201
331.1479
328.5004
325.3131
321.4981
316.6937
310.7757
304.023
297.0084
290.0057
283.1343
276.4355
269.9088
263.5277
257.251
251.0303
244.8166
238.5645
232.2352
225.7975
219.2273
212.5067
205.6228
198.5664
191.3308
183.9112
176.3044
168.5086
160.524
152.3533
144.0028
135.4837
126.8134
118.0172
109.1302
100.2002
91.28967
82.47777
73.86076
65.54984
57.66485
50.32325
43.62546
37.64018
32.39444
27.87251
24.02354
20.77447
18.04337
15.74965
13.82018
12.19186
10.812
9.637369
8.632936
7.770637
7.027753
6.384628
5.826055
5.339897
4.915624
4.545115
4.22246
3.942809
3.704234
3.499838
3.342261
3.183686
3.169277
3
3.063606
)
;
    }
    wall
    {
        type            calculated;
        value           nonuniform List<scalar> 2(336.4977 336.4977);
    }
    frontAndBack
    {
        type            empty;
    }
    middle
    {
        type            symmetryPlane;
        value           nonuniform List<scalar> 2(3.063606 3.063606);
    }
}


// ************************************************************************* //
