/*--------------------------------*- C++ -*----------------------------------*\
| =========                 |                                                 |
| \\      /  F ield         | foam-extend: Open Source CFD                    |
|  \\    /   O peration     | Version:     4.0                                |
|   \\  /    A nd           | Web:         http://www.foam-extend.org         |
|    \\/     M anipulation  |                                                 |
\*---------------------------------------------------------------------------*/
FoamFile
{
    version     2.0;
    format      ascii;
    class       volVectorField;
    location    "10000";
    object      U;
}
// * * * * * * * * * * * * * * * * * * * * * * * * * * * * * * * * * * * * * //

dimensions      [0 1 -1 0 0 0 0];

internalField   nonuniform List<vector> 
150
(
(0.2556559 4.800831e-06 0)
(0.2556559 4.800686e-06 0)
(0.7792856 1.237664e-05 0)
(0.7792856 1.237634e-05 0)
(1.328535 1.499809e-05 0)
(1.328535 1.499777e-05 0)
(1.903664 1.519061e-05 0)
(1.903664 1.51903e-05 0)
(2.503977 1.301741e-05 0)
(2.503977 1.30171e-05 0)
(3.127643 9.085285e-06 0)
(3.127643 9.084979e-06 0)
(3.771821 4.337742e-06 0)
(3.771821 4.337437e-06 0)
(4.433076 -1.601339e-06 0)
(4.433076 -1.601641e-06 0)
(5.107908 -1.061298e-05 0)
(5.107908 -1.061327e-05 0)
(5.790974 -1.838821e-05 0)
(5.790974 -1.83885e-05 0)
(6.471167 -1.952939e-05 0)
(6.471167 -1.952968e-05 0)
(7.138111 -1.804721e-05 0)
(7.138111 -1.804749e-05 0)
(7.786581 -1.686345e-05 0)
(7.786581 -1.686373e-05 0)
(8.412738 -1.500492e-05 0)
(8.412738 -1.50052e-05 0)
(9.013976 -1.255002e-05 0)
(9.013976 -1.25503e-05 0)
(9.588736 -9.844257e-06 0)
(9.588736 -9.844531e-06 0)
(10.13631 -7.186724e-06 0)
(10.13631 -7.186994e-06 0)
(10.65667 -4.764188e-06 0)
(10.65667 -4.764456e-06 0)
(11.1503 -2.677057e-06 0)
(11.1503 -2.677322e-06 0)
(11.61808 -9.635759e-07 0)
(11.61808 -9.638386e-07 0)
(12.06115 3.807628e-07 0)
(12.06115 3.805029e-07 0)
(12.48084 1.386996e-06 0)
(12.48084 1.386739e-06 0)
(12.87859 2.100007e-06 0)
(12.87859 2.099755e-06 0)
(13.25585 2.569555e-06 0)
(13.25585 2.569307e-06 0)
(13.61411 2.844462e-06 0)
(13.61411 2.844219e-06 0)
(13.9548 2.969211e-06 0)
(13.9548 2.968976e-06 0)
(14.27932 2.982296e-06 0)
(14.27932 2.982069e-06 0)
(14.58899 2.91575e-06 0)
(14.58899 2.915533e-06 0)
(14.88505 2.795441e-06 0)
(14.88505 2.795235e-06 0)
(15.16865 2.641777e-06 0)
(15.16865 2.641584e-06 0)
(15.44089 2.470664e-06 0)
(15.44089 2.470484e-06 0)
(15.70275 2.294807e-06 0)
(15.70275 2.29464e-06 0)
(15.95515 2.124803e-06 0)
(15.95515 2.124649e-06 0)
(16.19894 1.967452e-06 0)
(16.19894 1.96731e-06 0)
(16.43489 1.80413e-06 0)
(16.43489 1.803999e-06 0)
(16.66372 1.620576e-06 0)
(16.66372 1.620454e-06 0)
(16.88606 1.430354e-06 0)
(16.88606 1.43024e-06 0)
(17.10251 1.244239e-06 0)
(17.10251 1.244134e-06 0)
(17.3136 1.068845e-06 0)
(17.3136 1.06875e-06 0)
(17.51981 9.097398e-07 0)
(17.51981 9.096568e-07 0)
(17.72157 7.744999e-07 0)
(17.72157 7.74433e-07 0)
(17.91928 6.750306e-07 0)
(17.91928 6.749851e-07 0)
(18.11329 6.28658e-07 0)
(18.11329 6.286397e-07 0)
(18.30389 6.561227e-07 0)
(18.30389 6.561366e-07 0)
(18.49135 7.745276e-07 0)
(18.49135 7.745771e-07 0)
(18.67588 9.859792e-07 0)
(18.67588 9.860642e-07 0)
(18.85768 1.267824e-06 0)
(18.85768 1.26794e-06 0)
(19.0369 1.573431e-06 0)
(19.0369 1.573571e-06 0)
(19.21365 1.847355e-06 0)
(19.21365 1.847509e-06 0)
(19.38802 2.046953e-06 0)
(19.38802 2.047112e-06 0)
(19.56008 2.156003e-06 0)
(19.56008 2.156157e-06 0)
(19.72987 2.18269e-06 0)
(19.72987 2.182834e-06 0)
(19.89742 2.147093e-06 0)
(19.89742 2.147225e-06 0)
(20.06271 2.068559e-06 0)
(20.06271 2.068677e-06 0)
(20.2257 1.958943e-06 0)
(20.2257 1.959046e-06 0)
(20.38635 1.821368e-06 0)
(20.38635 1.821458e-06 0)
(20.54454 1.653737e-06 0)
(20.54454 1.653816e-06 0)
(20.70014 1.439584e-06 0)
(20.70014 1.439653e-06 0)
(20.853 1.137344e-06 0)
(20.853 1.137406e-06 0)
(21.00289 5.004925e-07 0)
(21.00289 5.005483e-07 0)
(21.14957 1.246945e-06 0)
(21.14957 1.246997e-06 0)
(21.29276 3.633147e-06 0)
(21.29276 3.63319e-06 0)
(21.43212 4.29515e-06 0)
(21.43212 4.295182e-06 0)
(21.5672 3.645562e-06 0)
(21.5672 3.645584e-06 0)
(21.69737 3.348047e-06 0)
(21.69737 3.34806e-06 0)
(21.82187 3.206704e-06 0)
(21.82187 3.20671e-06 0)
(21.9398 2.416634e-06 0)
(21.9398 2.416636e-06 0)
(22.05009 4.276646e-06 0)
(22.05009 4.276646e-06 0)
(22.15156 -5.040298e-06 0)
(22.15156 -5.040298e-06 0)
(22.24293 2.879592e-05 0)
(22.24293 2.879592e-05 0)
(22.32285 -9.717331e-05 0)
(22.32285 -9.717332e-05 0)
(22.38998 0.000340355 0)
(22.38998 0.000340355 0)
(22.4429 -0.001186983 0)
(22.4429 -0.001186983 0)
(22.48014 0.003891307 0)
(22.48014 0.003891307 0)
(22.49991 -0.007680053 0)
(22.49991 -0.007680053 0)
)
;

boundaryField
{
    leftandright
    {
        type            cyclic;
        value           nonuniform List<vector> 
150
(
(0.2556559 4.800759e-06 0)
(0.7792856 1.237649e-05 0)
(1.328535 1.499793e-05 0)
(1.903664 1.519046e-05 0)
(2.503977 1.301725e-05 0)
(3.127643 9.085132e-06 0)
(3.771821 4.33759e-06 0)
(4.433076 -1.60149e-06 0)
(5.107908 -1.061313e-05 0)
(5.790974 -1.838835e-05 0)
(6.471167 -1.952953e-05 0)
(7.138111 -1.804735e-05 0)
(7.786581 -1.686359e-05 0)
(8.412738 -1.500506e-05 0)
(9.013976 -1.255016e-05 0)
(9.588736 -9.844394e-06 0)
(10.13631 -7.186859e-06 0)
(10.65667 -4.764322e-06 0)
(11.1503 -2.67719e-06 0)
(11.61808 -9.637073e-07 0)
(12.06115 3.806329e-07 0)
(12.48084 1.386868e-06 0)
(12.87859 2.099881e-06 0)
(13.25585 2.569431e-06 0)
(13.61411 2.84434e-06 0)
(13.9548 2.969094e-06 0)
(14.27932 2.982183e-06 0)
(14.58899 2.915641e-06 0)
(14.88505 2.795338e-06 0)
(15.16865 2.641681e-06 0)
(15.44089 2.470574e-06 0)
(15.70275 2.294723e-06 0)
(15.95515 2.124726e-06 0)
(16.19894 1.967381e-06 0)
(16.43489 1.804064e-06 0)
(16.66372 1.620515e-06 0)
(16.88606 1.430297e-06 0)
(17.10251 1.244186e-06 0)
(17.3136 1.068797e-06 0)
(17.51981 9.096983e-07 0)
(17.72157 7.744664e-07 0)
(17.91928 6.750078e-07 0)
(18.11329 6.286488e-07 0)
(18.30389 6.561297e-07 0)
(18.49135 7.745524e-07 0)
(18.67588 9.860217e-07 0)
(18.85768 1.267882e-06 0)
(19.0369 1.573501e-06 0)
(19.21365 1.847432e-06 0)
(19.38802 2.047032e-06 0)
(19.56008 2.15608e-06 0)
(19.72987 2.182762e-06 0)
(19.89742 2.147159e-06 0)
(20.06271 2.068618e-06 0)
(20.2257 1.958994e-06 0)
(20.38635 1.821413e-06 0)
(20.54454 1.653776e-06 0)
(20.70014 1.439618e-06 0)
(20.853 1.137375e-06 0)
(21.00289 5.005204e-07 0)
(21.14957 1.246971e-06 0)
(21.29276 3.633168e-06 0)
(21.43212 4.295166e-06 0)
(21.5672 3.645573e-06 0)
(21.69737 3.348054e-06 0)
(21.82187 3.206707e-06 0)
(21.9398 2.416635e-06 0)
(22.05009 4.276646e-06 0)
(22.15156 -5.040298e-06 0)
(22.24293 2.879592e-05 0)
(22.32285 -9.717331e-05 0)
(22.38998 0.000340355 0)
(22.4429 -0.001186983 0)
(22.48014 0.003891307 0)
(22.49991 -0.007680053 0)
(0.2556559 4.800759e-06 0)
(0.7792856 1.237649e-05 0)
(1.328535 1.499793e-05 0)
(1.903664 1.519046e-05 0)
(2.503977 1.301725e-05 0)
(3.127643 9.085132e-06 0)
(3.771821 4.33759e-06 0)
(4.433076 -1.60149e-06 0)
(5.107908 -1.061313e-05 0)
(5.790974 -1.838835e-05 0)
(6.471167 -1.952953e-05 0)
(7.138111 -1.804735e-05 0)
(7.786581 -1.686359e-05 0)
(8.412738 -1.500506e-05 0)
(9.013976 -1.255016e-05 0)
(9.588736 -9.844394e-06 0)
(10.13631 -7.186859e-06 0)
(10.65667 -4.764322e-06 0)
(11.1503 -2.67719e-06 0)
(11.61808 -9.637073e-07 0)
(12.06115 3.806329e-07 0)
(12.48084 1.386868e-06 0)
(12.87859 2.099881e-06 0)
(13.25585 2.569431e-06 0)
(13.61411 2.84434e-06 0)
(13.9548 2.969094e-06 0)
(14.27932 2.982183e-06 0)
(14.58899 2.915641e-06 0)
(14.88505 2.795338e-06 0)
(15.16865 2.641681e-06 0)
(15.44089 2.470574e-06 0)
(15.70275 2.294723e-06 0)
(15.95515 2.124726e-06 0)
(16.19894 1.967381e-06 0)
(16.43489 1.804064e-06 0)
(16.66372 1.620515e-06 0)
(16.88606 1.430297e-06 0)
(17.10251 1.244186e-06 0)
(17.3136 1.068797e-06 0)
(17.51981 9.096983e-07 0)
(17.72157 7.744664e-07 0)
(17.91928 6.750078e-07 0)
(18.11329 6.286488e-07 0)
(18.30389 6.561297e-07 0)
(18.49135 7.745524e-07 0)
(18.67588 9.860217e-07 0)
(18.85768 1.267882e-06 0)
(19.0369 1.573501e-06 0)
(19.21365 1.847432e-06 0)
(19.38802 2.047032e-06 0)
(19.56008 2.15608e-06 0)
(19.72987 2.182762e-06 0)
(19.89742 2.147159e-06 0)
(20.06271 2.068618e-06 0)
(20.2257 1.958994e-06 0)
(20.38635 1.821413e-06 0)
(20.54454 1.653776e-06 0)
(20.70014 1.439618e-06 0)
(20.853 1.137375e-06 0)
(21.00289 5.005204e-07 0)
(21.14957 1.246971e-06 0)
(21.29276 3.633168e-06 0)
(21.43212 4.295166e-06 0)
(21.5672 3.645573e-06 0)
(21.69737 3.348054e-06 0)
(21.82187 3.206707e-06 0)
(21.9398 2.416635e-06 0)
(22.05009 4.276646e-06 0)
(22.15156 -5.040298e-06 0)
(22.24293 2.879592e-05 0)
(22.32285 -9.717331e-05 0)
(22.38998 0.000340355 0)
(22.4429 -0.001186983 0)
(22.48014 0.003891307 0)
(22.49991 -0.007680053 0)
)
;
    }
    wall
    {
        type            fixedValue;
        value           uniform (0 0 0);
    }
    frontAndBack
    {
        type            empty;
    }
    middle
    {
        type            symmetryPlane;
        value           nonuniform List<vector> 2((22.49991 0 0) (22.49991 0 0));
    }
}


// ************************************************************************* //
