/*--------------------------------*- C++ -*----------------------------------*\
| =========                 |                                                 |
| \\      /  F ield         | foam-extend: Open Source CFD                    |
|  \\    /   O peration     | Version:     4.0                                |
|   \\  /    A nd           | Web:         http://www.foam-extend.org         |
|    \\/     M anipulation  |                                                 |
\*---------------------------------------------------------------------------*/
FoamFile
{
    version     2.0;
    format      ascii;
    class       volScalarField;
    location    "10000";
    object      v2;
}
// * * * * * * * * * * * * * * * * * * * * * * * * * * * * * * * * * * * * * //

dimensions      [0 2 -2 0 0 0 0];

internalField   nonuniform List<scalar> 
150
(
1.266847e-06
1.266847e-06
6.14089e-05
6.140891e-05
0.0003687035
0.0003687035
0.00120711
0.00120711
0.002904593
0.002904593
0.005788919
0.00578892
0.01015307
0.01015307
0.01623488
0.01623488
0.02421321
0.02421321
0.03418538
0.03418538
0.04608733
0.04608733
0.05976278
0.05976279
0.07506735
0.07506735
0.09182876
0.09182877
0.1098595
0.1098595
0.1289676
0.1289676
0.1489661
0.1489661
0.1696787
0.1696787
0.1909443
0.1909443
0.2126183
0.2126183
0.234573
0.2345731
0.2566968
0.2566968
0.2788921
0.2788921
0.3010738
0.3010738
0.3231669
0.323167
0.3451051
0.3451051
0.3668281
0.3668282
0.3882812
0.3882813
0.4094131
0.4094131
0.4301753
0.4301753
0.4505212
0.4505212
0.4704057
0.4704057
0.4897848
0.4897848
0.5086158
0.5086159
0.5268575
0.5268575
0.5444708
0.5444708
0.5614166
0.5614167
0.5776551
0.5776551
0.5931436
0.5931436
0.6078372
0.6078372
0.6216873
0.6216873
0.6346424
0.6346424
0.646648
0.646648
0.657647
0.657647
0.6675804
0.6675804
0.6763889
0.6763889
0.6840132
0.6840132
0.6903964
0.6903964
0.6954843
0.6954843
0.6992274
0.6992274
0.701581
0.701581
0.7025056
0.7025056
0.7019674
0.7019674
0.699937
0.699937
0.6963892
0.6963892
0.6913009
0.6913009
0.6846489
0.6846489
0.6764059
0.6764059
0.6665351
0.6665351
0.6549815
0.6549815
0.6416586
0.6416586
0.6264296
0.6264295
0.6093829
0.6093829
0.5908546
0.5908546
0.5712002
0.5712002
0.5508056
0.5508056
0.5300946
0.5300946
0.5095328
0.5095328
0.4896257
0.4896256
0.47091
0.47091
0.4539393
0.4539393
0.439268
0.439268
0.4274353
0.4274353
0.4189827
0.4189827
0.4144374
0.4144374
)
;

boundaryField
{
    leftandright
    {
        type            cyclic;
        value           nonuniform List<scalar> 
150
(
1.266847e-06
6.140891e-05
0.0003687035
0.00120711
0.002904593
0.00578892
0.01015307
0.01623488
0.02421321
0.03418538
0.04608733
0.05976279
0.07506735
0.09182876
0.1098595
0.1289676
0.1489661
0.1696787
0.1909443
0.2126183
0.2345731
0.2566968
0.2788921
0.3010738
0.323167
0.3451051
0.3668281
0.3882812
0.4094131
0.4301753
0.4505212
0.4704057
0.4897848
0.5086158
0.5268575
0.5444708
0.5614167
0.5776551
0.5931436
0.6078372
0.6216873
0.6346424
0.646648
0.657647
0.6675804
0.6763889
0.6840132
0.6903964
0.6954843
0.6992274
0.701581
0.7025056
0.7019674
0.699937
0.6963892
0.6913009
0.6846489
0.6764059
0.6665351
0.6549815
0.6416586
0.6264295
0.6093829
0.5908546
0.5712002
0.5508056
0.5300946
0.5095328
0.4896256
0.47091
0.4539393
0.439268
0.4274353
0.4189827
0.4144374
1.266847e-06
6.140891e-05
0.0003687035
0.00120711
0.002904593
0.00578892
0.01015307
0.01623488
0.02421321
0.03418538
0.04608733
0.05976279
0.07506735
0.09182876
0.1098595
0.1289676
0.1489661
0.1696787
0.1909443
0.2126183
0.2345731
0.2566968
0.2788921
0.3010738
0.323167
0.3451051
0.3668281
0.3882812
0.4094131
0.4301753
0.4505212
0.4704057
0.4897848
0.5086158
0.5268575
0.5444708
0.5614167
0.5776551
0.5931436
0.6078372
0.6216873
0.6346424
0.646648
0.657647
0.6675804
0.6763889
0.6840132
0.6903964
0.6954843
0.6992274
0.701581
0.7025056
0.7019674
0.699937
0.6963892
0.6913009
0.6846489
0.6764059
0.6665351
0.6549815
0.6416586
0.6264295
0.6093829
0.5908546
0.5712002
0.5508056
0.5300946
0.5095328
0.4896256
0.47091
0.4539393
0.439268
0.4274353
0.4189827
0.4144374
)
;
    }
    wall
    {
        type            fixedValue;
        value           uniform 1e-10;
    }
    frontAndBack
    {
        type            empty;
    }
    middle
    {
        type            symmetryPlane;
        value           nonuniform List<scalar> 2(0.4144374 0.4144374);
    }
}


// ************************************************************************* //
