/*--------------------------------*- C++ -*----------------------------------*\
| =========                 |                                                 |
| \\      /  F ield         | foam-extend: Open Source CFD                    |
|  \\    /   O peration     | Version:     4.0                                |
|   \\  /    A nd           | Web:         http://www.foam-extend.org         |
|    \\/     M anipulation  |                                                 |
\*---------------------------------------------------------------------------*/
FoamFile
{
    version     2.0;
    format      ascii;
    class       volSymmTensorField;
    location    "100";
    object      C;
}
// * * * * * * * * * * * * * * * * * * * * * * * * * * * * * * * * * * * * * //

dimensions      [0 0 0 0 0 0 0];

internalField   nonuniform List<symmTensor> 
150
(
(1517.109 21.02103 0 0.5808581 0 0.5796059)
(1517.108 21.02102 0 0.580858 0 0.5796061)
(1516.541 21.02227 0 0.5811318 0 0.5797244)
(1516.541 21.02226 0 0.5811316 0 0.5797246)
(1515.491 21.02748 0 0.5817435 0 0.5799739)
(1515.49 21.02747 0 0.5817434 0 0.5799741)
(1513.952 21.03881 0 0.5828005 0 0.5803671)
(1513.951 21.0388 0 0.5828004 0 0.5803673)
(1511.847 21.05843 0 0.5844737 0 0.5809189)
(1511.847 21.05841 0 0.5844736 0 0.5809191)
(1509.059 21.0892 0 0.587022 0 0.5816454)
(1509.059 21.08919 0 0.5870218 0 0.5816455)
(1505.479 21.13554 0 0.5908068 0 0.5825601)
(1505.479 21.13553 0 0.5908067 0 0.5825602)
(1501.068 21.20418 0 0.5962955 0 0.5836689)
(1501.068 21.20418 0 0.5962954 0 0.583669)
(1495.906 21.30481 0 0.6040564 0 0.5849655)
(1495.906 21.3048 0 0.6040562 0 0.5849656)
(1490.205 21.45038 0 0.6147616 0 0.5864323)
(1490.206 21.45037 0 0.6147614 0 0.5864323)
(1484.236 21.65713 0 0.629234 0 0.5880508)
(1484.237 21.65713 0 0.6292339 0 0.5880509)
(1478.105 21.94349 0 0.6485992 0 0.589824)
(1478.106 21.94349 0 0.6485992 0 0.589824)
(1471.208 22.32412 0 0.6746027 0 0.5917975)
(1471.208 22.32413 0 0.6746027 0 0.5917975)
(1462.759 22.81343 0 0.7102742 0 0.5940214)
(1462.76 22.81344 0 0.7102744 0 0.5940214)
(1452.966 23.43176 0 0.757299 0 0.5964681)
(1452.967 23.43177 0 0.7572993 0 0.5964681)
(1442.901 24.20461 0 0.8173801 0 0.5990188)
(1442.902 24.20463 0 0.8173806 0 0.5990188)
(1433.313 25.15143 0 0.8927556 0 0.6015407)
(1433.314 25.15145 0 0.8927562 0 0.6015407)
(1424.532 26.28698 0 0.9862493 0 0.6039366)
(1424.533 26.28701 0 0.9862502 0 0.6039366)
(1416.614 27.62375 0 1.10133 0 0.6061604)
(1416.615 27.62378 0 1.101331 0 0.6061603)
(1409.432 29.17225 0 1.242142 0 0.6082161)
(1409.433 29.17228 0 1.242143 0 0.6082161)
(1402.723 30.94003 0 1.413503 0 0.6101509)
(1402.724 30.94006 0 1.413504 0 0.6101509)
(1396.123 32.93027 0 1.62087 0 0.6120464)
(1396.124 32.9303 0 1.620872 0 0.6120464)
(1389.196 35.14042 0 1.870264 0 0.6140092)
(1389.197 35.14045 0 1.870266 0 0.6140093)
(1381.467 37.56115 0 2.168149 0 0.6161612)
(1381.468 37.56118 0 2.168151 0 0.6161613)
(1372.46 40.17583 0 2.52127 0 0.6186283)
(1372.46 40.17586 0 2.521272 0 0.6186283)
(1361.734 42.96054 0 2.93645 0 0.6215296)
(1361.735 42.96057 0 2.936452 0 0.6215297)
(1348.919 45.88457 0 3.420353 0 0.6249686)
(1348.92 45.8846 0 3.420355 0 0.6249687)
(1333.735 48.91133 0 3.979221 0 0.6290259)
(1333.735 48.91135 0 3.979223 0 0.6290261)
(1315.998 51.99947 0 4.618591 0 0.6337558)
(1315.999 51.9995 0 4.618593 0 0.633756)
(1295.627 55.10418 0 5.342992 0 0.6391854)
(1295.628 55.1042 0 5.342994 0 0.6391856)
(1272.628 58.17839 0 6.155641 0 0.6453167)
(1272.629 58.17841 0 6.155643 0 0.6453169)
(1247.082 61.17404 0 7.058127 0 0.6521307)
(1247.083 61.17406 0 7.05813 0 0.6521309)
(1219.128 64.04313 0 8.050108 0 0.6595915)
(1219.129 64.04314 0 8.050109 0 0.6595917)
(1188.944 66.73878 0 9.129018 0 0.667652)
(1188.945 66.7388 0 9.12902 0 0.6676522)
(1156.735 69.21608 0 10.2898 0 0.6762577)
(1156.735 69.21609 0 10.2898 0 0.6762578)
(1122.716 71.43288 0 11.5247 0 0.6853512)
(1122.716 71.4329 0 11.5247 0 0.6853513)
(1087.101 73.3504 0 12.82303 0 0.6948755)
(1087.101 73.35042 0 12.82304 0 0.6948756)
(1050.098 74.93381 0 14.17117 0 0.7047768)
(1050.098 74.93383 0 14.17118 0 0.7047768)
(1011.896 76.15265 0 15.55242 0 0.7150063)
(1011.896 76.15267 0 15.55243 0 0.7150062)
(972.6632 76.98104 0 16.94709 0 0.7255219)
(972.6631 76.98105 0 16.9471 0 0.7255217)
(932.5457 77.39786 0 18.33265 0 0.7362889)
(932.5456 77.39787 0 18.33266 0 0.7362887)
(891.6613 77.38678 0 19.68392 0 0.7472809)
(891.6612 77.38678 0 19.68393 0 0.7472806)
(850.101 76.93613 0 20.97343 0 0.7584796)
(850.1008 76.93614 0 20.97343 0 0.7584794)
(807.9298 76.0388 0 22.17175 0 0.7698748)
(807.9298 76.0388 0 22.17175 0 0.7698744)
(765.1871 74.69157 0 23.24784 0 0.7814638)
(765.1872 74.69157 0 23.24784 0 0.7814633)
(721.8882 72.89475 0 24.16942 0 0.7932508)
(721.8883 72.89476 0 24.16943 0 0.7932504)
(678.027 70.6517 0 24.90346 0 0.8052467)
(678.0273 70.65173 0 24.90346 0 0.8052463)
(633.5789 67.9684 0 25.41666 0 0.8174673)
(633.5794 67.96846 0 25.41668 0 0.8174669)
(588.5041 64.85304 0 25.67609 0 0.8299328)
(588.5046 64.8531 0 25.67611 0 0.8299325)
(542.7513 61.31557 0 25.64972 0 0.8426664)
(542.7519 61.31564 0 25.64974 0 0.842666)
(496.264 57.36763 0 25.30711 0 0.855692)
(496.2647 57.3677 0 25.30714 0 0.8556917)
(448.9893 53.02268 0 24.62027 0 0.8690319)
(448.9902 53.02278 0 24.62031 0 0.8690316)
(400.8933 48.29709 0 23.56475 0 0.8827018)
(400.8943 48.2972 0 23.5648 0 0.8827014)
(351.9913 43.21297 0 22.12178 0 0.8967009)
(351.9923 43.21309 0 22.12184 0 0.8967007)
(302.4073 37.80508 0 20.2826 0 0.9109944)
(302.4083 37.80521 0 20.28267 0 0.9109941)
(252.4959 32.13588 0 18.05794 0 0.9254753)
(252.4968 32.13599 0 18.058 0 0.9254751)
(203.0661 26.32468 0 15.49724 0 0.9398992)
(203.0668 26.32478 0 15.49729 0 0.9398991)
(155.6993 20.59099 0 12.71992 0 0.9537913)
(155.6998 20.59105 0 12.71995 0 0.9537913)
(112.9245 15.28249 0 9.943431 0 0.9663996)
(112.9248 15.28253 0 9.943457 0 0.9663996)
(77.65515 10.80946 0 7.456605 0 0.9768574)
(77.65534 10.80949 0 7.456621 0 0.9768575)
(51.63203 7.442958 0 5.494932 0 0.9846294)
(51.63215 7.442975 0 5.494944 0 0.9846294)
(34.22674 5.14586 0 4.109718 0 0.9898653)
(34.22682 5.145871 0 4.109726 0 0.9898652)
(23.16251 3.652094 0 3.187442 0 0.9932117)
(23.16256 3.652101 0 3.187447 0 0.9932117)
(16.11585 2.673771 0 2.573675 0 0.9953503)
(16.11588 2.673775 0 2.573678 0 0.9953503)
(11.48772 2.008409 0 2.151396 0 0.9967589)
(11.48773 2.008412 0 2.151398 0 0.9967589)
(8.341139 1.536231 0 1.849084 0 0.9977199)
(8.341147 1.536233 0 1.849085 0 0.9977198)
(6.143247 1.18892 0 1.625492 0 0.998394)
(6.143251 1.188921 0 1.625493 0 0.9983941)
(4.574849 0.9251923 0 1.455224 0 0.9988776)
(4.574853 0.9251932 0 1.455224 0 0.9988779)
(3.444693 0.7205072 0 1.324808 0 0.9992281)
(3.444697 0.7205081 0 1.324809 0 0.9992288)
(2.615526 0.5556375 0 1.221534 0 0.9994878)
(2.615527 0.5556377 0 1.221534 0 0.9994885)
(2.031133 0.4243596 0 1.149486 0 0.9996719)
(2.031131 0.4243591 0 1.149486 0 0.9996721)
(1.568196 0.3056312 0 1.07516 0 0.9998221)
(1.568193 0.3056301 0 1.075158 0 0.9998209)
(1.356056 0.2206758 0 1.076933 0 0.999881)
(1.356054 0.2206755 0 1.076931 0 0.9998782)
(1.023948 0.1167247 0 0.9680901 0 0.9999985)
(1.023948 0.1167253 0 0.9680904 0 0.9999991)
(1.057505 0.04249994 0 1.029483 0 0.9999765)
(1.057504 0.04249965 0 1.029481 0 0.999976)
)
;

boundaryField
{
    leftandright
    {
        type            cyclic;
        value           nonuniform List<symmTensor> 
150
(
(1517.109 21.02102 0 0.580858 0 0.579606)
(1516.541 21.02227 0 0.5811317 0 0.5797245)
(1515.49 21.02747 0 0.5817435 0 0.579974)
(1513.951 21.03881 0 0.5828005 0 0.5803672)
(1511.847 21.05842 0 0.5844737 0 0.580919)
(1509.059 21.08919 0 0.5870219 0 0.5816455)
(1505.479 21.13553 0 0.5908067 0 0.5825602)
(1501.068 21.20418 0 0.5962954 0 0.583669)
(1495.906 21.3048 0 0.6040563 0 0.5849655)
(1490.206 21.45037 0 0.6147615 0 0.5864323)
(1484.237 21.65713 0 0.629234 0 0.5880509)
(1478.106 21.94349 0 0.6485992 0 0.589824)
(1471.208 22.32412 0 0.6746027 0 0.5917975)
(1462.76 22.81344 0 0.7102743 0 0.5940214)
(1452.966 23.43176 0 0.7572992 0 0.5964681)
(1442.902 24.20462 0 0.8173803 0 0.5990188)
(1433.314 25.15144 0 0.8927559 0 0.6015407)
(1424.533 26.287 0 0.9862497 0 0.6039366)
(1416.615 27.62377 0 1.10133 0 0.6061604)
(1409.432 29.17226 0 1.242142 0 0.6082161)
(1402.723 30.94004 0 1.413504 0 0.6101509)
(1396.123 32.93028 0 1.620871 0 0.6120464)
(1389.197 35.14043 0 1.870265 0 0.6140093)
(1381.467 37.56117 0 2.16815 0 0.6161613)
(1372.46 40.17585 0 2.521271 0 0.6186283)
(1361.734 42.96056 0 2.936451 0 0.6215296)
(1348.92 45.88458 0 3.420354 0 0.6249686)
(1333.735 48.91134 0 3.979222 0 0.629026)
(1315.998 51.99948 0 4.618592 0 0.6337559)
(1295.627 55.10419 0 5.342993 0 0.6391855)
(1272.629 58.1784 0 6.155642 0 0.6453168)
(1247.082 61.17405 0 7.058129 0 0.6521308)
(1219.128 64.04313 0 8.050109 0 0.6595916)
(1188.944 66.73879 0 9.129019 0 0.6676521)
(1156.735 69.21609 0 10.2898 0 0.6762577)
(1122.716 71.43289 0 11.5247 0 0.6853512)
(1087.101 73.35041 0 12.82304 0 0.6948755)
(1050.098 74.93382 0 14.17118 0 0.7047768)
(1011.896 76.15266 0 15.55242 0 0.7150063)
(972.6632 76.98105 0 16.94709 0 0.7255218)
(932.5457 77.39787 0 18.33265 0 0.7362888)
(891.6612 77.38678 0 19.68393 0 0.7472807)
(850.1009 76.93614 0 20.97343 0 0.7584795)
(807.9298 76.0388 0 22.17175 0 0.7698746)
(765.1871 74.69157 0 23.24784 0 0.7814635)
(721.8882 72.89476 0 24.16942 0 0.7932506)
(678.0271 70.65172 0 24.90346 0 0.8052465)
(633.5791 67.96843 0 25.41667 0 0.8174671)
(588.5044 64.85307 0 25.6761 0 0.8299327)
(542.7516 61.31561 0 25.64973 0 0.8426662)
(496.2644 57.36766 0 25.30712 0 0.8556918)
(448.9897 53.02273 0 24.62029 0 0.8690318)
(400.8938 48.29714 0 23.56477 0 0.8827016)
(351.9918 43.21303 0 22.12181 0 0.8967008)
(302.4078 37.80515 0 20.28263 0 0.9109943)
(252.4963 32.13593 0 18.05797 0 0.9254752)
(203.0665 26.32473 0 15.49727 0 0.9398991)
(155.6996 20.59102 0 12.71993 0 0.9537913)
(112.9247 15.28251 0 9.943444 0 0.9663996)
(77.65525 10.80948 0 7.456613 0 0.9768575)
(51.63209 7.442967 0 5.494938 0 0.9846294)
(34.22678 5.145865 0 4.109722 0 0.9898652)
(23.16254 3.652098 0 3.187445 0 0.9932117)
(16.11587 2.673773 0 2.573676 0 0.9953503)
(11.48772 2.00841 0 2.151397 0 0.9967589)
(8.341143 1.536232 0 1.849085 0 0.9977198)
(6.143249 1.18892 0 1.625493 0 0.998394)
(4.574851 0.9251928 0 1.455224 0 0.9988778)
(3.444695 0.7205076 0 1.324809 0 0.9992285)
(2.615527 0.5556376 0 1.221534 0 0.9994882)
(2.031132 0.4243593 0 1.149486 0 0.999672)
(1.568194 0.3056307 0 1.075159 0 0.9998215)
(1.356055 0.2206756 0 1.076932 0 0.9998796)
(1.023948 0.116725 0 0.9680902 0 0.9999988)
(1.057505 0.0424998 0 1.029482 0 0.9999762)
(1517.109 21.02102 0 0.580858 0 0.579606)
(1516.541 21.02227 0 0.5811317 0 0.5797245)
(1515.49 21.02747 0 0.5817435 0 0.579974)
(1513.951 21.03881 0 0.5828005 0 0.5803672)
(1511.847 21.05842 0 0.5844737 0 0.580919)
(1509.059 21.08919 0 0.5870219 0 0.5816455)
(1505.479 21.13553 0 0.5908067 0 0.5825602)
(1501.068 21.20418 0 0.5962954 0 0.583669)
(1495.906 21.3048 0 0.6040563 0 0.5849655)
(1490.206 21.45037 0 0.6147615 0 0.5864323)
(1484.237 21.65713 0 0.629234 0 0.5880509)
(1478.106 21.94349 0 0.6485992 0 0.589824)
(1471.208 22.32412 0 0.6746027 0 0.5917975)
(1462.76 22.81344 0 0.7102743 0 0.5940214)
(1452.966 23.43176 0 0.7572992 0 0.5964681)
(1442.902 24.20462 0 0.8173803 0 0.5990188)
(1433.314 25.15144 0 0.8927559 0 0.6015407)
(1424.533 26.287 0 0.9862497 0 0.6039366)
(1416.615 27.62377 0 1.10133 0 0.6061604)
(1409.432 29.17226 0 1.242142 0 0.6082161)
(1402.723 30.94004 0 1.413504 0 0.6101509)
(1396.123 32.93028 0 1.620871 0 0.6120464)
(1389.197 35.14043 0 1.870265 0 0.6140093)
(1381.467 37.56117 0 2.16815 0 0.6161613)
(1372.46 40.17585 0 2.521271 0 0.6186283)
(1361.734 42.96056 0 2.936451 0 0.6215296)
(1348.92 45.88458 0 3.420354 0 0.6249686)
(1333.735 48.91134 0 3.979222 0 0.629026)
(1315.998 51.99948 0 4.618592 0 0.6337559)
(1295.627 55.10419 0 5.342993 0 0.6391855)
(1272.629 58.1784 0 6.155642 0 0.6453168)
(1247.082 61.17405 0 7.058129 0 0.6521308)
(1219.128 64.04313 0 8.050109 0 0.6595916)
(1188.944 66.73879 0 9.129019 0 0.6676521)
(1156.735 69.21609 0 10.2898 0 0.6762577)
(1122.716 71.43289 0 11.5247 0 0.6853512)
(1087.101 73.35041 0 12.82304 0 0.6948755)
(1050.098 74.93382 0 14.17118 0 0.7047768)
(1011.896 76.15266 0 15.55242 0 0.7150063)
(972.6632 76.98105 0 16.94709 0 0.7255218)
(932.5457 77.39787 0 18.33265 0 0.7362888)
(891.6612 77.38678 0 19.68393 0 0.7472807)
(850.1009 76.93614 0 20.97343 0 0.7584795)
(807.9298 76.0388 0 22.17175 0 0.7698746)
(765.1871 74.69157 0 23.24784 0 0.7814635)
(721.8882 72.89476 0 24.16942 0 0.7932506)
(678.0271 70.65172 0 24.90346 0 0.8052465)
(633.5791 67.96843 0 25.41667 0 0.8174671)
(588.5044 64.85307 0 25.6761 0 0.8299327)
(542.7516 61.31561 0 25.64973 0 0.8426662)
(496.2644 57.36766 0 25.30712 0 0.8556918)
(448.9897 53.02273 0 24.62029 0 0.8690318)
(400.8938 48.29714 0 23.56477 0 0.8827016)
(351.9918 43.21303 0 22.12181 0 0.8967008)
(302.4078 37.80515 0 20.28263 0 0.9109943)
(252.4963 32.13593 0 18.05797 0 0.9254752)
(203.0665 26.32473 0 15.49727 0 0.9398991)
(155.6996 20.59102 0 12.71993 0 0.9537913)
(112.9247 15.28251 0 9.943444 0 0.9663996)
(77.65525 10.80948 0 7.456613 0 0.9768575)
(51.63209 7.442967 0 5.494938 0 0.9846294)
(34.22678 5.145865 0 4.109722 0 0.9898652)
(23.16254 3.652098 0 3.187445 0 0.9932117)
(16.11587 2.673773 0 2.573676 0 0.9953503)
(11.48772 2.00841 0 2.151397 0 0.9967589)
(8.341143 1.536232 0 1.849085 0 0.9977198)
(6.143249 1.18892 0 1.625493 0 0.998394)
(4.574851 0.9251928 0 1.455224 0 0.9988778)
(3.444695 0.7205076 0 1.324809 0 0.9992285)
(2.615527 0.5556376 0 1.221534 0 0.9994882)
(2.031132 0.4243593 0 1.149486 0 0.999672)
(1.568194 0.3056307 0 1.075159 0 0.9998215)
(1.356055 0.2206756 0 1.076932 0 0.9998796)
(1.023948 0.116725 0 0.9680902 0 0.9999988)
(1.057505 0.0424998 0 1.029482 0 0.9999762)
)
;
    }
    wall
    {
        type            zeroGradient;
    }
    frontAndBack
    {
        type            empty;
    }
    middle
    {
        type            symmetryPlane;
        value           nonuniform List<symmTensor> 2((1.057505 0 0 1.029483 0 0.9999765) (1.057504 0 0 1.029481 0 0.999976));
    }
}


// ************************************************************************* //
