/*--------------------------------*- C++ -*----------------------------------*\
| =========                 |                                                 |
| \\      /  F ield         | foam-extend: Open Source CFD                    |
|  \\    /   O peration     | Version:     4.0                                |
|   \\  /    A nd           | Web:         http://www.foam-extend.org         |
|    \\/     M anipulation  |                                                 |
\*---------------------------------------------------------------------------*/
FoamFile
{
    version     2.0;
    format      ascii;
    class       volScalarField;
    location    "100";
    object      Ceps1;
}
// * * * * * * * * * * * * * * * * * * * * * * * * * * * * * * * * * * * * * //

dimensions      [0 0 0 0 0 0 0];

internalField   nonuniform List<scalar> 
150
(
8.428281
8.428281
4.684419
4.684419
3.549293
3.549293
3.013146
3.013146
2.703636
2.703636
2.503403
2.503403
2.363981
2.363981
2.261727
2.261727
2.183714
2.183714
2.122271
2.122271
2.072564
2.072564
2.03141
2.03141
1.996644
1.996644
1.966909
1.966909
1.940828
1.940828
1.917332
1.917332
1.895708
1.895708
1.875499
1.875499
1.856406
1.856406
1.838241
1.838241
1.820884
1.820884
1.80426
1.80426
1.788323
1.788323
1.773045
1.773045
1.758408
1.758408
1.744399
1.744399
1.73101
1.73101
1.71823
1.71823
1.706053
1.706053
1.694466
1.694466
1.683457
1.683457
1.673014
1.673014
1.66312
1.66312
1.65376
1.65376
1.644914
1.644914
1.636565
1.636565
1.628692
1.628692
1.621276
1.621276
1.614297
1.614297
1.607735
1.607735
1.601569
1.601569
1.595779
1.595779
1.590346
1.590346
1.585249
1.585249
1.580469
1.580469
1.575986
1.575986
1.571784
1.571784
1.567843
1.567843
1.564147
1.564147
1.560678
1.560678
1.557418
1.557418
1.55435
1.55435
1.551455
1.551455
1.548713
1.548713
1.546104
1.546104
1.543605
1.543605
1.541192
1.541192
1.538839
1.538839
1.536522
1.536522
1.534218
1.534218
1.53191
1.53191
1.529589
1.529589
1.527258
1.527258
1.524931
1.524931
1.522633
1.522633
1.520404
1.520404
1.518298
1.518298
1.516395
1.516395
1.514739
1.514739
1.513303
1.513303
1.512073
1.512073
1.51105
1.51105
1.510244
1.510244
1.509675
1.509675
1.509371
1.509371
)
;

boundaryField
{
    leftandright
    {
        type            cyclic;
        value           nonuniform List<scalar> 
150
(
8.428281
4.684419
3.549293
3.013146
2.703636
2.503403
2.363981
2.261727
2.183714
2.122271
2.072564
2.03141
1.996644
1.966909
1.940828
1.917332
1.895708
1.875499
1.856406
1.838241
1.820884
1.80426
1.788323
1.773045
1.758408
1.744399
1.73101
1.71823
1.706053
1.694466
1.683457
1.673014
1.66312
1.65376
1.644914
1.636565
1.628692
1.621276
1.614297
1.607735
1.601569
1.595779
1.590346
1.585249
1.580469
1.575986
1.571784
1.567843
1.564147
1.560678
1.557418
1.55435
1.551455
1.548713
1.546104
1.543605
1.541192
1.538839
1.536522
1.534218
1.53191
1.529589
1.527258
1.524931
1.522633
1.520404
1.518298
1.516395
1.514739
1.513303
1.512073
1.51105
1.510244
1.509675
1.509371
8.428281
4.684419
3.549293
3.013146
2.703636
2.503403
2.363981
2.261727
2.183714
2.122271
2.072564
2.03141
1.996644
1.966909
1.940828
1.917332
1.895708
1.875499
1.856406
1.838241
1.820884
1.80426
1.788323
1.773045
1.758408
1.744399
1.73101
1.71823
1.706053
1.694466
1.683457
1.673014
1.66312
1.65376
1.644914
1.636565
1.628692
1.621276
1.614297
1.607735
1.601569
1.595779
1.590346
1.585249
1.580469
1.575986
1.571784
1.567843
1.564147
1.560678
1.557418
1.55435
1.551455
1.548713
1.546104
1.543605
1.541192
1.538839
1.536522
1.534218
1.53191
1.529589
1.527258
1.524931
1.522633
1.520404
1.518298
1.516395
1.514739
1.513303
1.512073
1.51105
1.510244
1.509675
1.509371
)
;
    }
    wall
    {
        type            calculated;
        value           uniform 1.463;
    }
    frontAndBack
    {
        type            empty;
    }
    middle
    {
        type            symmetryPlane;
        value           nonuniform List<scalar> 2(1.509371 1.509371);
    }
}


// ************************************************************************* //
