/*--------------------------------*- C++ -*----------------------------------*\
| =========                 |                                                 |
| \\      /  F ield         | foam-extend: Open Source CFD                    |
|  \\    /   O peration     | Version:     4.0                                |
|   \\  /    A nd           | Web:         http://www.foam-extend.org         |
|    \\/     M anipulation  |                                                 |
\*---------------------------------------------------------------------------*/
FoamFile
{
    version     2.0;
    format      ascii;
    class       volSymmTensorField;
    location    "100";
    object      DiffC;
}
// * * * * * * * * * * * * * * * * * * * * * * * * * * * * * * * * * * * * * //

dimensions      [0 0 -1 0 0 0 0];

internalField   nonuniform List<symmTensor> 
150
(
(-35.68094 0.07812285 0 0.01720718 0 0.007454227)
(-35.68092 0.0780847 0 0.01720634 0 0.00745394)
(-25.85831 0.2219783 0 0.01844481 0 0.007106198)
(-25.85649 0.2220079 0 0.01844506 0 0.007105843)
(-22.37551 0.3019681 0 0.02132412 0 0.006746712)
(-22.37403 0.3019889 0 0.02132419 0 0.006746441)
(-22.698 0.3588959 0 0.02620862 0 0.00645696)
(-22.69694 0.3589109 0 0.02620867 0 0.006456811)
(-24.30971 0.4285312 0 0.03331719 0 0.006180015)
(-24.3091 0.4285411 0 0.03331726 0 0.006179994)
(-24.80784 0.534702 0 0.0422537 0 0.005772072)
(-24.80762 0.5347087 0 0.0422538 0 0.005772154)
(-22.39821 0.6891425 0 0.05221516 0 0.005092716)
(-22.39822 0.6891488 0 0.05221533 0 0.00509285)
(-16.42308 0.8907012 0 0.0623143 0 0.004102342)
(-16.42316 0.8907103 0 0.06231457 0 0.004102465)
(-7.804189 1.127273 0 0.07215125 0 0.002943172)
(-7.804252 1.127286 0 0.07215164 0 0.002943237)
(0.594769 1.377612 0 0.08253968 0 0.001969293)
(0.5947191 1.377628 0 0.08254016 0 0.001969287)
(3.318783 1.60177 0 0.09635095 0 0.001666263)
(3.318659 1.601785 0 0.09635148 0 0.001666213)
(-9.51634 1.672075 0 0.1186117 0 0.00230417)
(-9.516642 1.672087 0 0.1186122 0 0.002304131)
(-22.77873 1.695968 0 0.1584936 0 0.002843588)
(-22.77926 1.695974 0 0.1584941 0 0.002843609)
(-15.70581 1.789068 0 0.1639431 0 0.001875965)
(-15.7065 1.789065 0 0.1639435 0 0.001876036)
(3.577053 1.914006 0 0.1658667 0 -0.0003275021)
(3.576415 1.913994 0 0.1658669 0 -0.0003274637)
(13.95899 1.895095 0 0.1722644 0 -0.002243731)
(13.95852 1.89508 0 0.1722644 0 -0.002243744)
(16.54707 1.790003 0 0.1819679 0 -0.003251601)
(16.54664 1.78999 0 0.1819678 0 -0.003251587)
(15.15064 1.653032 0 0.1940548 0 -0.003400482)
(15.15021 1.653012 0 0.1940543 0 -0.003400498)
(11.91198 1.498499 0 0.2074161 0 -0.002943918)
(11.91132 1.498479 0 0.2074155 0 -0.002943792)
(7.947861 1.32539 0 0.2208675 0 -0.002137604)
(7.948116 1.325397 0 0.2208682 0 -0.00213756)
(3.872607 1.130932 0 0.2332575 0 -0.001183436)
(3.872172 1.130941 0 0.2332575 0 -0.001183207)
(0.08027803 0.9157107 0 0.2435101 0 -0.0002284066)
(0.0801171 0.9156886 0 0.2435091 0 -0.000228336)
(-3.143139 0.6845799 0 0.2506729 0 0.0006228473)
(-3.143113 0.68456 0 0.2506721 0 0.000622668)
(-5.607749 0.4457363 0 0.2539696 0 0.001301422)
(-5.607826 0.4457213 0 0.2539689 0 0.001301256)
(-7.225368 0.2090222 0 0.2528487 0 0.00177063)
(-7.225552 0.2090055 0 0.252848 0 0.001770762)
(-8.01257 -0.01567314 0 0.2470168 0 0.002024902)
(-8.012433 -0.01566603 0 0.2470166 0 0.002025038)
(-8.072828 -0.2199396 0 0.2364241 0 0.002083133)
(-8.072808 -0.2199386 0 0.2364238 0 0.002083029)
(-7.564036 -0.397542 0 0.2212486 0 0.001981471)
(-7.5639 -0.397546 0 0.221248 0 0.001981472)
(-6.662615 -0.5447621 0 0.2018583 0 0.001765791)
(-6.661964 -0.5447661 0 0.2018574 0 0.001765481)
(-5.536682 -0.6602387 0 0.1787582 0 0.001480482)
(-5.538673 -0.6602351 0 0.17876 0 0.001480585)
(-4.332883 -0.7445206 0 0.1525707 0 0.001166375)
(-4.332207 -0.7445318 0 0.152569 0 0.001166407)
(-3.152444 -0.7995952 0 0.1239836 0 0.0008538505)
(-3.151682 -0.7996158 0 0.1239804 0 0.0008534655)
(-2.071069 -0.8282927 0 0.09374238 0 0.000564787)
(-2.072799 -0.8282604 0 0.09374794 0 0.0005650487)
(-1.130916 -0.8341237 0 0.06260323 0 0.0003120348)
(-1.130393 -0.8341535 0 0.06259905 0 0.0003118126)
(-0.3473167 -0.8206832 0 0.03132914 0 0.0001016888)
(-0.347119 -0.8206625 0 0.03133149 0 0.0001017402)
(0.2757634 -0.7916797 0 0.0006240627 0 -6.52254e-05)
(0.2757542 -0.791671 0 0.0006331952 0 -6.524175e-05)
(0.749772 -0.7504419 0 -0.02876596 0 -0.0001907934)
(0.7497112 -0.7504688 0 -0.02877718 0 -0.0001908808)
(1.088232 -0.7002889 0 -0.05626587 0 -0.000279639)
(1.088281 -0.700287 0 -0.05626843 0 -0.0002794664)
(1.312344 -0.644136 0 -0.08134554 0 -0.0003367987)
(1.312278 -0.6441679 0 -0.08135599 0 -0.0003369416)
(1.442597 -0.584533 0 -0.1035368 0 -0.0003683836)
(1.442716 -0.5845025 0 -0.1035211 0 -0.0003683638)
(1.496061 -0.5235692 0 -0.1225031 0 -0.0003792766)
(1.496083 -0.5235801 0 -0.1225114 0 -0.0003791532)
(1.491466 -0.4631139 0 -0.1380275 0 -0.0003745719)
(1.491537 -0.4631085 0 -0.1380288 0 -0.0003745203)
(1.445167 -0.4045171 0 -0.149996 0 -0.0003590435)
(1.445259 -0.404538 0 -0.1500046 0 -0.0003590575)
(1.36887 -0.3491835 0 -0.1585735 0 -0.0003359306)
(1.368832 -0.3491627 0 -0.1585658 0 -0.0003358505)
(1.273809 -0.2978188 0 -0.1638832 0 -0.0003084197)
(1.273861 -0.2978141 0 -0.1638774 0 -0.0003082381)
(1.168901 -0.2509007 0 -0.166133 0 -0.0002787279)
(1.168873 -0.2509076 0 -0.1661385 0 -0.0002787075)
(1.060568 -0.2086523 0 -0.1655573 0 -0.0002489237)
(1.060543 -0.2086455 0 -0.1655491 0 -0.0002489038)
(0.9542201 -0.171047 0 -0.1623991 0 -0.0002203121)
(0.9541264 -0.1710693 0 -0.1624157 0 -0.0002201566)
(0.8536139 -0.137997 0 -0.1570055 0 -0.0001937847)
(0.8534962 -0.1380012 0 -0.1570007 0 -0.0001937976)
(0.7622437 -0.1091195 0 -0.1496162 0 -0.0001705352)
(0.7621696 -0.1091373 0 -0.1496244 0 -0.0001704046)
(0.6832826 -0.08394995 0 -0.1405123 0 -0.000151178)
(0.6832259 -0.08394913 0 -0.1405096 0 -0.0001511639)
(0.6209827 -0.06171256 0 -0.1298417 0 -0.0001370002)
(0.620792 -0.0617391 0 -0.1298558 0 -0.0001369776)
(0.5822419 -0.04120805 0 -0.117496 0 -0.0001301805)
(0.5820506 -0.04122812 0 -0.1175017 0 -0.000130068)
(0.5796706 -0.02036766 0 -0.1028237 0 -0.0001343593)
(0.5795087 -0.02038715 0 -0.1028334 0 -0.0001343395)
(0.6370848 0.00436548 0 -0.08412277 0 -0.0001567792)
(0.6368959 0.004341548 0 -0.08413858 0 -0.0001567135)
(0.7923581 0.03861646 0 -0.05807839 0 -0.0002082925)
(0.7921935 0.03859875 0 -0.0580881 0 -0.0002082639)
(1.085269 0.08856573 0 -0.02026867 0 -0.0003000481)
(1.085144 0.08854371 0 -0.02027954 0 -0.0003000532)
(1.500949 0.1537255 0 0.03056283 0 -0.0004267403)
(1.500877 0.1537204 0 0.03056073 0 -0.000426729)
(1.877411 0.2144016 0 0.08360182 0 -0.0005414127)
(1.877376 0.2143964 0 0.08359715 0 -0.0005413877)
(1.937199 0.2340912 0 0.114361 0 -0.0005646261)
(1.93718 0.2340863 0 0.1143593 0 -0.0005646434)
(1.578657 0.1970119 0 0.1073907 0 -0.0004654784)
(1.578641 0.1970106 0 0.1073893 0 -0.0004654928)
(1.038568 0.1322497 0 0.07666331 0 -0.0003098348)
(1.038556 0.132248 0 0.07666171 0 -0.0003098001)
(0.5958204 0.0769353 0 0.04623565 0 -0.0001792594)
(0.5958139 0.0769344 0 0.0462351 0 -0.0001792703)
(0.3269627 0.04270944 0 0.02622348 0 -9.876133e-05)
(0.3269585 0.04270905 0 0.02622314 0 -9.875943e-05)
(0.1829829 0.02419665 0 0.01507559 0 -5.53407e-05)
(0.1829827 0.02419613 0 0.01507527 0 -5.534374e-05)
(0.1069529 0.01436301 0 0.009077838 0 -3.239564e-05)
(0.1069516 0.01436303 0 0.009077775 0 -3.235127e-05)
(0.06472429 0.008841533 0 0.005649572 0 -1.961793e-05)
(0.06472386 0.008841311 0 0.005649318 0 -1.963482e-05)
(0.04093862 0.005727098 0 0.003834449 0 -1.243539e-05)
(0.04093812 0.005726987 0 0.003834513 0 -1.247715e-05)
(0.02564261 0.003593699 0 0.0024165 0 -7.71985e-06)
(0.02564167 0.003593513 0 0.002416171 0 -7.852869e-06)
(0.01857718 0.00271836 0 0.002361641 0 -5.692414e-06)
(0.01857698 0.002718327 0 0.002361662 0 -5.84241e-06)
(0.008860719 0.001127694 0 8.222166e-05 0 -2.520676e-06)
(0.00886117 0.001127789 0 8.220356e-05 0 -2.603327e-06)
(0.01454572 0.002111439 0 0.004234392 0 -5.343447e-06)
(0.01454623 0.002111712 0 0.004234656 0 -5.150902e-06)
(-0.005234828 -0.0007029231 0 -0.005310697 0 2.449529e-06)
(-0.005234502 -0.0007028928 0 -0.00531025 0 3.128692e-06)
(0.01661325 0.001521375 0 0.007632772 0 -6.27218e-06)
(0.0166132 0.001521203 0 0.007632537 0 -6.569008e-06)
(-0.001386227 -0.000359735 0 -0.002535994 0 8.613945e-07)
(-0.001385964 -0.0003596286 0 -0.002535722 0 1.002906e-06)
)
;

boundaryField
{
    leftandright
    {
        type            cyclic;
        value           nonuniform List<symmTensor> 
150
(
(-35.68093 0.07810377 0 0.01720676 0 0.007454083)
(-25.8574 0.2219931 0 0.01844494 0 0.00710602)
(-22.37477 0.3019785 0 0.02132415 0 0.006746577)
(-22.69747 0.3589034 0 0.02620864 0 0.006456886)
(-24.30941 0.4285362 0 0.03331723 0 0.006180004)
(-24.80773 0.5347054 0 0.04225375 0 0.005772113)
(-22.39821 0.6891457 0 0.05221525 0 0.005092783)
(-16.42312 0.8907058 0 0.06231443 0 0.004102404)
(-7.80422 1.12728 0 0.07215144 0 0.002943204)
(0.594744 1.37762 0 0.08253992 0 0.00196929)
(3.318721 1.601778 0 0.09635121 0 0.001666238)
(-9.516491 1.672081 0 0.118612 0 0.00230415)
(-22.779 1.695971 0 0.1584939 0 0.002843598)
(-15.70615 1.789066 0 0.1639433 0 0.001876001)
(3.576734 1.914 0 0.1658668 0 -0.0003274829)
(13.95875 1.895088 0 0.1722644 0 -0.002243738)
(16.54686 1.789996 0 0.1819679 0 -0.003251594)
(15.15042 1.653022 0 0.1940545 0 -0.00340049)
(11.91165 1.498489 0 0.2074158 0 -0.002943855)
(7.947989 1.325394 0 0.2208679 0 -0.002137582)
(3.872389 1.130936 0 0.2332575 0 -0.001183322)
(0.08019757 0.9156996 0 0.2435096 0 -0.0002283713)
(-3.143126 0.68457 0 0.2506725 0 0.0006227577)
(-5.607788 0.4457288 0 0.2539692 0 0.001301339)
(-7.22546 0.2090138 0 0.2528484 0 0.001770696)
(-8.012502 -0.01566959 0 0.2470167 0 0.00202497)
(-8.072818 -0.2199391 0 0.236424 0 0.002083081)
(-7.563968 -0.397544 0 0.2212483 0 0.001981471)
(-6.66229 -0.5447641 0 0.2018578 0 0.001765636)
(-5.537678 -0.6602369 0 0.1787591 0 0.001480533)
(-4.332545 -0.7445262 0 0.1525699 0 0.001166391)
(-3.152063 -0.7996055 0 0.123982 0 0.000853658)
(-2.071934 -0.8282766 0 0.09374516 0 0.0005649179)
(-1.130655 -0.8341386 0 0.06260114 0 0.0003119237)
(-0.3472179 -0.8206728 0 0.03133032 0 0.0001017145)
(0.2757588 -0.7916754 0 0.000628629 0 -6.523358e-05)
(0.7497416 -0.7504553 0 -0.02877157 0 -0.0001908371)
(1.088256 -0.7002879 0 -0.05626715 0 -0.0002795527)
(1.312311 -0.644152 0 -0.08135077 0 -0.0003368701)
(1.442656 -0.5845178 0 -0.1035289 0 -0.0003683737)
(1.496072 -0.5235746 0 -0.1225073 0 -0.0003792149)
(1.491501 -0.4631112 0 -0.1380282 0 -0.0003745461)
(1.445213 -0.4045275 0 -0.1500003 0 -0.0003590505)
(1.368851 -0.3491731 0 -0.1585696 0 -0.0003358906)
(1.273835 -0.2978165 0 -0.1638803 0 -0.0003083289)
(1.168887 -0.2509041 0 -0.1661358 0 -0.0002787177)
(1.060556 -0.2086489 0 -0.1655532 0 -0.0002489138)
(0.9541733 -0.1710581 0 -0.1624074 0 -0.0002202343)
(0.853555 -0.1379991 0 -0.1570031 0 -0.0001937911)
(0.7622067 -0.1091284 0 -0.1496203 0 -0.0001704699)
(0.6832542 -0.08394954 0 -0.140511 0 -0.0001511709)
(0.6208873 -0.06172583 0 -0.1298488 0 -0.0001369889)
(0.5821463 -0.04121808 0 -0.1174988 0 -0.0001301243)
(0.5795896 -0.0203774 0 -0.1028285 0 -0.0001343494)
(0.6369903 0.004353514 0 -0.08413068 0 -0.0001567464)
(0.7922758 0.0386076 0 -0.05808324 0 -0.0002082782)
(1.085207 0.08855472 0 -0.02027411 0 -0.0003000506)
(1.500913 0.153723 0 0.03056178 0 -0.0004267347)
(1.877394 0.214399 0 0.08359949 0 -0.0005414002)
(1.937189 0.2340887 0 0.1143601 0 -0.0005646347)
(1.578649 0.1970112 0 0.10739 0 -0.0004654856)
(1.038562 0.1322488 0 0.07666251 0 -0.0003098174)
(0.5958171 0.07693485 0 0.04623537 0 -0.0001792649)
(0.3269606 0.04270925 0 0.02622331 0 -9.876038e-05)
(0.1829828 0.02419639 0 0.01507543 0 -5.534222e-05)
(0.1069523 0.01436302 0 0.009077806 0 -3.237346e-05)
(0.06472408 0.008841422 0 0.005649445 0 -1.962637e-05)
(0.04093837 0.005727043 0 0.003834481 0 -1.245627e-05)
(0.02564214 0.003593606 0 0.002416336 0 -7.78636e-06)
(0.01857708 0.002718344 0 0.002361652 0 -5.767412e-06)
(0.008860945 0.001127741 0 8.221261e-05 0 -2.562001e-06)
(0.01454597 0.002111575 0 0.004234524 0 -5.247174e-06)
(-0.005234665 -0.0007029079 0 -0.005310473 0 2.78911e-06)
(0.01661323 0.001521289 0 0.007632655 0 -6.420594e-06)
(-0.001386096 -0.0003596818 0 -0.002535858 0 9.321505e-07)
(-35.68093 0.07810377 0 0.01720676 0 0.007454083)
(-25.8574 0.2219931 0 0.01844494 0 0.00710602)
(-22.37477 0.3019785 0 0.02132415 0 0.006746577)
(-22.69747 0.3589034 0 0.02620864 0 0.006456886)
(-24.30941 0.4285362 0 0.03331723 0 0.006180004)
(-24.80773 0.5347054 0 0.04225375 0 0.005772113)
(-22.39821 0.6891457 0 0.05221525 0 0.005092783)
(-16.42312 0.8907058 0 0.06231443 0 0.004102404)
(-7.80422 1.12728 0 0.07215144 0 0.002943204)
(0.594744 1.37762 0 0.08253992 0 0.00196929)
(3.318721 1.601778 0 0.09635121 0 0.001666238)
(-9.516491 1.672081 0 0.118612 0 0.00230415)
(-22.779 1.695971 0 0.1584939 0 0.002843598)
(-15.70615 1.789066 0 0.1639433 0 0.001876001)
(3.576734 1.914 0 0.1658668 0 -0.0003274829)
(13.95875 1.895088 0 0.1722644 0 -0.002243738)
(16.54686 1.789996 0 0.1819679 0 -0.003251594)
(15.15042 1.653022 0 0.1940545 0 -0.00340049)
(11.91165 1.498489 0 0.2074158 0 -0.002943855)
(7.947989 1.325394 0 0.2208679 0 -0.002137582)
(3.872389 1.130936 0 0.2332575 0 -0.001183322)
(0.08019757 0.9156996 0 0.2435096 0 -0.0002283713)
(-3.143126 0.68457 0 0.2506725 0 0.0006227577)
(-5.607788 0.4457288 0 0.2539692 0 0.001301339)
(-7.22546 0.2090138 0 0.2528484 0 0.001770696)
(-8.012502 -0.01566959 0 0.2470167 0 0.00202497)
(-8.072818 -0.2199391 0 0.236424 0 0.002083081)
(-7.563968 -0.397544 0 0.2212483 0 0.001981471)
(-6.66229 -0.5447641 0 0.2018578 0 0.001765636)
(-5.537678 -0.6602369 0 0.1787591 0 0.001480533)
(-4.332545 -0.7445262 0 0.1525699 0 0.001166391)
(-3.152063 -0.7996055 0 0.123982 0 0.000853658)
(-2.071934 -0.8282766 0 0.09374516 0 0.0005649179)
(-1.130655 -0.8341386 0 0.06260114 0 0.0003119237)
(-0.3472179 -0.8206728 0 0.03133032 0 0.0001017145)
(0.2757588 -0.7916754 0 0.000628629 0 -6.523358e-05)
(0.7497416 -0.7504553 0 -0.02877157 0 -0.0001908371)
(1.088256 -0.7002879 0 -0.05626715 0 -0.0002795527)
(1.312311 -0.644152 0 -0.08135077 0 -0.0003368701)
(1.442656 -0.5845178 0 -0.1035289 0 -0.0003683737)
(1.496072 -0.5235746 0 -0.1225073 0 -0.0003792149)
(1.491501 -0.4631112 0 -0.1380282 0 -0.0003745461)
(1.445213 -0.4045275 0 -0.1500003 0 -0.0003590505)
(1.368851 -0.3491731 0 -0.1585696 0 -0.0003358906)
(1.273835 -0.2978165 0 -0.1638803 0 -0.0003083289)
(1.168887 -0.2509041 0 -0.1661358 0 -0.0002787177)
(1.060556 -0.2086489 0 -0.1655532 0 -0.0002489138)
(0.9541733 -0.1710581 0 -0.1624074 0 -0.0002202343)
(0.853555 -0.1379991 0 -0.1570031 0 -0.0001937911)
(0.7622067 -0.1091284 0 -0.1496203 0 -0.0001704699)
(0.6832542 -0.08394954 0 -0.140511 0 -0.0001511709)
(0.6208873 -0.06172583 0 -0.1298488 0 -0.0001369889)
(0.5821463 -0.04121808 0 -0.1174988 0 -0.0001301243)
(0.5795896 -0.0203774 0 -0.1028285 0 -0.0001343494)
(0.6369903 0.004353514 0 -0.08413068 0 -0.0001567464)
(0.7922758 0.0386076 0 -0.05808324 0 -0.0002082782)
(1.085207 0.08855472 0 -0.02027411 0 -0.0003000506)
(1.500913 0.153723 0 0.03056178 0 -0.0004267347)
(1.877394 0.214399 0 0.08359949 0 -0.0005414002)
(1.937189 0.2340887 0 0.1143601 0 -0.0005646347)
(1.578649 0.1970112 0 0.10739 0 -0.0004654856)
(1.038562 0.1322488 0 0.07666251 0 -0.0003098174)
(0.5958171 0.07693485 0 0.04623537 0 -0.0001792649)
(0.3269606 0.04270925 0 0.02622331 0 -9.876038e-05)
(0.1829828 0.02419639 0 0.01507543 0 -5.534222e-05)
(0.1069523 0.01436302 0 0.009077806 0 -3.237346e-05)
(0.06472408 0.008841422 0 0.005649445 0 -1.962637e-05)
(0.04093837 0.005727043 0 0.003834481 0 -1.245627e-05)
(0.02564214 0.003593606 0 0.002416336 0 -7.78636e-06)
(0.01857708 0.002718344 0 0.002361652 0 -5.767412e-06)
(0.008860945 0.001127741 0 8.221261e-05 0 -2.562001e-06)
(0.01454597 0.002111575 0 0.004234524 0 -5.247174e-06)
(-0.005234665 -0.0007029079 0 -0.005310473 0 2.78911e-06)
(0.01661323 0.001521289 0 0.007632655 0 -6.420594e-06)
(-0.001386096 -0.0003596818 0 -0.002535858 0 9.321505e-07)
)
;
    }
    wall
    {
        type            calculated;
        value           nonuniform List<symmTensor> 2((-35.68094 0.07812285 0 0.01720718 0 0.007454227) (-35.68092 0.0780847 0 0.01720634 0 0.00745394));
    }
    frontAndBack
    {
        type            empty;
    }
    middle
    {
        type            symmetryPlane;
        value           nonuniform List<symmTensor> 2((-0.001386227 0 0 -0.002535994 0 8.613945e-07) (-0.001385964 0 0 -0.002535722 0 1.002906e-06));
    }
}


// ************************************************************************* //
