/*--------------------------------*- C++ -*----------------------------------*\
| =========                 |                                                 |
| \\      /  F ield         | foam-extend: Open Source CFD                    |
|  \\    /   O peration     | Version:     4.0                                |
|   \\  /    A nd           | Web:         http://www.foam-extend.org         |
|    \\/     M anipulation  |                                                 |
\*---------------------------------------------------------------------------*/
FoamFile
{
    version     2.0;
    format      ascii;
    class       volScalarField;
    location    "100";
    object      epsilonPlus;
}
// * * * * * * * * * * * * * * * * * * * * * * * * * * * * * * * * * * * * * //

dimensions      [0 4 -4 0 0 0 0];

internalField   nonuniform List<scalar> 
150
(
0.1194942
0.1194942
0.1091479
0.1091479
0.1002993
0.1002993
0.09296422
0.09296423
0.08717223
0.08717223
0.08296179
0.0829618
0.08037254
0.08037254
0.07943477
0.07943477
0.08015841
0.08015841
0.08252401
0.08252401
0.08647851
0.08647852
0.09193782
0.09193782
0.09879702
0.09879702
0.1069342
0.1069342
0.1157554
0.1157554
0.1246565
0.1246565
0.1330932
0.1330932
0.1405936
0.1405936
0.1467774
0.1467774
0.1513705
0.1513705
0.1542107
0.1542107
0.1552452
0.1552452
0.1545197
0.1545197
0.1521615
0.1521615
0.148359
0.148359
0.14334
0.14334
0.1373511
0.1373511
0.1306397
0.1306397
0.1234405
0.1234405
0.1159656
0.1159656
0.1083981
0.1083981
0.1008903
0.1008903
0.09356307
0.09356308
0.08650835
0.08650835
0.0797919
0.0797919
0.07345714
0.07345714
0.06752896
0.06752896
0.0620174
0.0620174
0.05692099
0.056921
0.05222967
0.05222967
0.04792721
0.04792721
0.04399324
0.04399324
0.04040479
0.04040479
0.03713756
0.03713756
0.03416679
0.03416679
0.03146795
0.03146795
0.02901713
0.02901713
0.02679138
0.02679138
0.02476885
0.02476885
0.02292885
0.02292885
0.02125188
0.02125188
0.01971957
0.01971957
0.0183146
0.0183146
0.0170206
0.0170206
0.01582209
0.01582209
0.01470443
0.01470443
0.01365388
0.01365388
0.01265788
0.01265788
0.01170563
0.01170563
0.01078906
0.01078906
0.009903722
0.009903722
0.009049099
0.009049099
0.008227961
0.008227961
0.007445076
0.007445076
0.006705992
0.006705992
0.006016171
0.006016171
0.00538044
0.00538044
0.004802657
0.004802657
0.004285808
0.004285808
0.003832599
0.003832599
0.003445716
0.003445716
0.003127825
0.003127825
0.002881762
0.002881762
0.002711157
0.002711157
0.002621329
0.002621329
)
;

boundaryField
{
    leftandright
    {
        type            cyclic;
        value           nonuniform List<scalar> 
150
(
0.1194942
0.1091479
0.1002993
0.09296422
0.08717223
0.08296179
0.08037254
0.07943477
0.08015841
0.08252401
0.08647851
0.09193782
0.09879702
0.1069342
0.1157554
0.1246565
0.1330932
0.1405936
0.1467774
0.1513705
0.1542107
0.1552452
0.1545197
0.1521615
0.148359
0.14334
0.1373511
0.1306397
0.1234405
0.1159656
0.1083981
0.1008903
0.09356307
0.08650835
0.0797919
0.07345714
0.06752896
0.0620174
0.05692099
0.05222967
0.04792721
0.04399324
0.04040479
0.03713756
0.03416679
0.03146795
0.02901713
0.02679138
0.02476885
0.02292885
0.02125188
0.01971957
0.0183146
0.0170206
0.01582209
0.01470443
0.01365388
0.01265788
0.01170563
0.01078906
0.009903722
0.009049099
0.008227961
0.007445076
0.006705992
0.006016171
0.00538044
0.004802657
0.004285808
0.003832599
0.003445716
0.003127825
0.002881762
0.002711157
0.002621329
0.1194942
0.1091479
0.1002993
0.09296422
0.08717223
0.08296179
0.08037254
0.07943477
0.08015841
0.08252401
0.08647851
0.09193782
0.09879702
0.1069342
0.1157554
0.1246565
0.1330932
0.1405936
0.1467774
0.1513705
0.1542107
0.1552452
0.1545197
0.1521615
0.148359
0.14334
0.1373511
0.1306397
0.1234405
0.1159656
0.1083981
0.1008903
0.09356307
0.08650835
0.0797919
0.07345714
0.06752896
0.0620174
0.05692099
0.05222967
0.04792721
0.04399324
0.04040479
0.03713756
0.03416679
0.03146795
0.02901713
0.02679138
0.02476885
0.02292885
0.02125188
0.01971957
0.0183146
0.0170206
0.01582209
0.01470443
0.01365388
0.01265788
0.01170563
0.01078906
0.009903722
0.009049099
0.008227961
0.007445076
0.006705992
0.006016171
0.00538044
0.004802657
0.004285808
0.003832599
0.003445716
0.003127825
0.002881762
0.002711157
0.002621329
)
;
    }
    wall
    {
        type            calculated;
        value           nonuniform List<scalar> 2(0.1255634 0.1255634);
    }
    frontAndBack
    {
        type            empty;
    }
    middle
    {
        type            symmetryPlane;
        value           nonuniform List<scalar> 2(0.002621329 0.002621329);
    }
}


// ************************************************************************* //
