/*--------------------------------*- C++ -*----------------------------------*\
| =========                 |                                                 |
| \\      /  F ield         | foam-extend: Open Source CFD                    |
|  \\    /   O peration     | Version:     4.0                                |
|   \\  /    A nd           | Web:         http://www.foam-extend.org         |
|    \\/     M anipulation  |                                                 |
\*---------------------------------------------------------------------------*/
FoamFile
{
    version     2.0;
    format      ascii;
    class       volScalarField;
    location    "100";
    object      epsilon;
}
// * * * * * * * * * * * * * * * * * * * * * * * * * * * * * * * * * * * * * //

dimensions      [0 2 -3 0 0 0 0];

internalField   nonuniform List<scalar> 
150
(
35.84826
35.84826
32.74436
32.74436
30.08978
30.08978
27.88927
27.88927
26.15167
26.15167
24.88854
24.88854
24.11176
24.11176
23.83043
23.83043
24.04752
24.04752
24.7572
24.7572
25.94355
25.94356
27.58135
27.58135
29.63911
29.63911
32.08027
32.08027
34.72661
34.72662
37.39695
37.39695
39.92797
39.92797
42.17807
42.17807
44.03321
44.03321
45.41115
45.41115
46.26322
46.26322
46.57357
46.57357
46.35591
46.35591
45.64844
45.64844
44.5077
44.5077
43.00201
43.00201
41.20532
41.20532
39.1919
39.1919
37.03216
37.03216
34.78967
34.78967
32.51944
32.51944
30.26708
30.26708
28.06892
28.06892
25.9525
25.95251
23.93757
23.93757
22.03714
22.03714
20.25869
20.25869
18.60522
18.60522
17.0763
17.0763
15.6689
15.6689
14.37816
14.37816
13.19797
13.19797
12.12144
12.12144
11.14127
11.14127
10.25004
10.25004
9.440384
9.440384
8.705138
8.705138
8.037413
8.037413
7.430654
7.430654
6.878655
6.878655
6.375565
6.375565
5.915872
5.915872
5.494379
5.494379
5.106179
5.106179
4.746627
4.746627
4.41133
4.41133
4.096165
4.096165
3.797363
3.797363
3.51169
3.51169
3.236719
3.236719
2.971117
2.971117
2.71473
2.71473
2.468388
2.468388
2.233523
2.233523
2.011798
2.011798
1.804851
1.804851
1.614132
1.614132
1.440797
1.440797
1.285742
1.285742
1.14978
1.14978
1.033715
1.033715
0.9383474
0.9383474
0.8645287
0.8645287
0.8133471
0.8133471
0.7863987
0.7863987
)
;

boundaryField
{
    leftandright
    {
        type            cyclic;
        value           nonuniform List<scalar> 
150
(
35.84826
32.74436
30.08978
27.88927
26.15167
24.88854
24.11176
23.83043
24.04752
24.7572
25.94355
27.58135
29.63911
32.08027
34.72662
37.39695
39.92797
42.17807
44.03321
45.41115
46.26322
46.57357
46.35591
45.64844
44.5077
43.00201
41.20532
39.1919
37.03216
34.78967
32.51944
30.26708
28.06892
25.9525
23.93757
22.03714
20.25869
18.60522
17.0763
15.6689
14.37816
13.19797
12.12144
11.14127
10.25004
9.440384
8.705138
8.037413
7.430654
6.878655
6.375565
5.915872
5.494379
5.106179
4.746627
4.41133
4.096165
3.797363
3.51169
3.236719
2.971117
2.71473
2.468388
2.233523
2.011798
1.804851
1.614132
1.440797
1.285742
1.14978
1.033715
0.9383474
0.8645287
0.8133471
0.7863987
35.84826
32.74436
30.08978
27.88927
26.15167
24.88854
24.11176
23.83043
24.04752
24.7572
25.94355
27.58135
29.63911
32.08027
34.72662
37.39695
39.92797
42.17807
44.03321
45.41115
46.26322
46.57357
46.35591
45.64844
44.5077
43.00201
41.20532
39.1919
37.03216
34.78967
32.51944
30.26708
28.06892
25.9525
23.93757
22.03714
20.25869
18.60522
17.0763
15.6689
14.37816
13.19797
12.12144
11.14127
10.25004
9.440384
8.705138
8.037413
7.430654
6.878655
6.375565
5.915872
5.494379
5.106179
4.746627
4.41133
4.096165
3.797363
3.51169
3.236719
2.971117
2.71473
2.468388
2.233523
2.011798
1.804851
1.614132
1.440797
1.285742
1.14978
1.033715
0.9383474
0.8645287
0.8133471
0.7863987
)
;
    }
    wall
    {
        type            groovyBC;
        refValue        nonuniform List<scalar> 2(37.66901 37.66901);
        refGradient     uniform 0;
        valueFraction   uniform 1;
        value           nonuniform List<scalar> 2(37.66901 37.66901);
        valueExpression "2*nu*internalField(k)/sqr(mag(delta()))";
        gradientExpression "0";
        fractionExpression "1";
        evaluateDuringConstruction 0;
        variables       "";
        timelines       (
);
        lookuptables    (
);
    }
    frontAndBack
    {
        type            empty;
    }
    middle
    {
        type            symmetryPlane;
        value           nonuniform List<scalar> 2(0.7863987 0.7863987);
    }
}


// ************************************************************************* //
