/*--------------------------------*- C++ -*----------------------------------*\
| =========                 |                                                 |
| \\      /  F ield         | foam-extend: Open Source CFD                    |
|  \\    /   O peration     | Version:     4.0                                |
|   \\  /    A nd           | Web:         http://www.foam-extend.org         |
|    \\/     M anipulation  |                                                 |
\*---------------------------------------------------------------------------*/
FoamFile
{
    version     2.0;
    format      ascii;
    class       volScalarField;
    location    "100";
    object      epsilonV;
}
// * * * * * * * * * * * * * * * * * * * * * * * * * * * * * * * * * * * * * //

dimensions      [0 2 -3 0 0 0 0];

internalField   nonuniform List<scalar> 
150
(
9.889965e-07
9.889958e-07
5.13792e-05
5.137917e-05
0.000334805
0.0003348048
0.001190565
0.001190565
0.003098446
0.003098445
0.006631116
0.006631112
0.01236949
0.01236949
0.020796
0.02079599
0.03220388
0.03220387
0.046667
0.046667
0.06408817
0.06408818
0.08429442
0.08429445
0.1068049
0.106805
0.1440168
0.144017
0.1888812
0.1888814
0.2399601
0.2399604
0.2976679
0.2976683
0.3624568
0.3624574
0.4348004
0.434801
0.5151166
0.5151174
0.6036793
0.6036801
0.7005202
0.7005212
0.8053363
0.8053374
0.9174182
0.9174194
1.035618
1.035619
1.158365
1.158366
1.283733
1.283734
1.409548
1.409549
1.533513
1.533514
1.653343
1.653344
1.76688
1.766881
1.872182
1.872183
1.967581
1.967582
2.051714
2.051715
2.12352
2.12352
2.182223
2.182224
2.227303
2.227304
2.25846
2.258461
2.275573
2.275573
2.278665
2.278665
2.267876
2.267876
2.243439
2.243439
2.205658
2.205658
2.154907
2.154907
2.091609
2.091609
2.016233
2.016233
1.929301
1.929302
1.831391
1.831393
1.723145
1.723146
1.605277
1.605279
1.47859
1.478592
1.343993
1.343996
1.202533
1.202536
1.055473
1.055476
0.9044358
0.904439
0.7517238
0.7517266
0.6009022
0.6009046
0.4575896
0.457591
0.3297291
0.32973
0.2256945
0.2256951
0.1498071
0.1498074
0.09937842
0.09937864
0.06730355
0.06730368
0.0467211
0.04672117
0.03302861
0.03302866
0.02356388
0.02356389
0.01682294
0.01682295
0.01190313
0.01190314
0.008276988
0.008276998
0.005548481
0.005548483
0.003604449
0.003604444
0.001973137
0.001973129
0.001352827
0.001352825
-4.046135e-05
-4.045996e-05
0.0002754945
0.0002754938
)
;

boundaryField
{
    leftandright
    {
        type            cyclic;
        value           nonuniform List<scalar> 
150
(
9.889961e-07
5.137918e-05
0.0003348049
0.001190565
0.003098446
0.006631114
0.01236949
0.020796
0.03220388
0.046667
0.06408818
0.08429444
0.1068049
0.1440169
0.1888813
0.2399602
0.2976681
0.3624571
0.4348007
0.515117
0.6036797
0.7005207
0.8053368
0.9174188
1.035618
1.158365
1.283734
1.409548
1.533513
1.653344
1.766881
1.872182
1.967582
2.051715
2.12352
2.182223
2.227304
2.258461
2.275573
2.278665
2.267876
2.243439
2.205658
2.154907
2.091609
2.016233
1.929302
1.831392
1.723145
1.605278
1.478591
1.343994
1.202535
1.055475
0.9044374
0.7517252
0.6009034
0.4575903
0.3297295
0.2256948
0.1498072
0.09937853
0.06730362
0.04672114
0.03302864
0.02356389
0.01682294
0.01190313
0.008276993
0.005548482
0.003604447
0.001973133
0.001352826
-4.046066e-05
0.0002754942
9.889961e-07
5.137918e-05
0.0003348049
0.001190565
0.003098446
0.006631114
0.01236949
0.020796
0.03220388
0.046667
0.06408818
0.08429444
0.1068049
0.1440169
0.1888813
0.2399602
0.2976681
0.3624571
0.4348007
0.515117
0.6036797
0.7005207
0.8053368
0.9174188
1.035618
1.158365
1.283734
1.409548
1.533513
1.653344
1.766881
1.872182
1.967582
2.051715
2.12352
2.182223
2.227304
2.258461
2.275573
2.278665
2.267876
2.243439
2.205658
2.154907
2.091609
2.016233
1.929302
1.831392
1.723145
1.605278
1.478591
1.343994
1.202535
1.055475
0.9044374
0.7517252
0.6009034
0.4575903
0.3297295
0.2256948
0.1498072
0.09937853
0.06730362
0.04672114
0.03302864
0.02356389
0.01682294
0.01190313
0.008276993
0.005548482
0.003604447
0.001973133
0.001352826
-4.046066e-05
0.0002754942
)
;
    }
    wall
    {
        type            calculated;
        value           nonuniform List<scalar> 2(8.144766e-10 8.14476e-10);
    }
    frontAndBack
    {
        type            empty;
    }
    middle
    {
        type            symmetryPlane;
        value           nonuniform List<scalar> 2(0.0002754945 0.0002754938);
    }
}


// ************************************************************************* //
