/*--------------------------------*- C++ -*----------------------------------*\
| =========                 |                                                 |
| \\      /  F ield         | foam-extend: Open Source CFD                    |
|  \\    /   O peration     | Version:     4.0                                |
|   \\  /    A nd           | Web:         http://www.foam-extend.org         |
|    \\/     M anipulation  |                                                 |
\*---------------------------------------------------------------------------*/
FoamFile
{
    version     2.0;
    format      ascii;
    class       volScalarField;
    location    "100";
    object      EtauP;
}
// * * * * * * * * * * * * * * * * * * * * * * * * * * * * * * * * * * * * * //

dimensions      [0 2 -4 0 0 0 0];

internalField   nonuniform List<scalar> 
150
(
0.0001440712
0.0001440711
0.003975767
0.003975764
0.01881711
0.0188171
0.05468919
0.05468916
0.1236663
0.1236663
0.2390708
0.2390707
0.4144954
0.4144953
0.6628196
0.6628195
0.9955168
0.9955166
1.422561
1.422561
1.953035
1.953036
2.596053
2.596054
3.351458
3.35146
4.199688
4.199692
5.12581
5.125816
6.131637
6.131645
7.213906
7.213916
8.365187
8.365199
9.575097
9.575112
10.82985
10.82986
12.11171
12.11173
13.3986
13.39862
14.66411
14.66413
15.87831
15.87833
17.00921
17.00923
18.02502
18.02504
18.8966
18.89662
19.59983
19.59985
20.11744
20.11745
20.43999
20.44001
20.56604
20.56605
20.50146
20.50148
20.25831
20.25832
19.85325
19.85326
19.30604
19.30604
18.63801
18.63801
17.87082
17.87083
17.02552
17.02553
16.12178
16.12178
15.17745
15.17745
14.20835
14.20835
13.22817
13.22817
12.24851
12.24851
11.27906
11.27906
10.32766
10.32767
9.400565
9.400568
8.502604
8.502607
7.637428
7.637435
6.807702
6.807709
6.015277
6.015285
5.261394
5.261402
4.546864
4.546875
3.872294
3.872304
3.238386
3.238396
2.646432
2.646441
2.099145
2.099153
1.602009
1.602015
1.164746
1.164749
0.8010021
0.8010043
0.522807
0.5228084
0.3304626
0.3304633
0.2084075
0.2084079
0.1339167
0.1339169
0.08801582
0.08801595
0.05878208
0.05878216
0.03953662
0.03953664
0.02656117
0.0265612
0.01765975
0.01765977
0.01153083
0.01153084
0.007260871
0.007260873
0.004440102
0.004440096
0.002298489
0.002298479
0.001501996
0.001501995
-4.332415e-05
-4.332266e-05
0.0002890942
0.0002890934
)
;

boundaryField
{
    leftandright
    {
        type            cyclic;
        value           nonuniform List<scalar> 
150
(
0.0001440712
0.003975765
0.0188171
0.05468918
0.1236663
0.2390707
0.4144953
0.6628196
0.9955167
1.422561
1.953035
2.596054
3.351459
4.19969
5.125813
6.131641
7.213911
8.365193
9.575104
10.82986
12.11172
13.39861
14.66412
15.87832
17.00922
18.02503
18.89661
19.59984
20.11745
20.44
20.56604
20.50147
20.25831
19.85326
19.30604
18.63801
17.87083
17.02553
16.12178
15.17745
14.20835
13.22817
12.24851
11.27906
10.32766
9.400566
8.502606
7.637432
6.807705
6.015281
5.261398
4.54687
3.872299
3.238391
2.646436
2.099149
1.602012
1.164748
0.8010032
0.5228077
0.3304629
0.2084077
0.1339168
0.08801588
0.05878212
0.03953663
0.02656119
0.01765976
0.01153084
0.007260872
0.004440099
0.002298484
0.001501995
-4.332341e-05
0.0002890938
0.0001440712
0.003975765
0.0188171
0.05468918
0.1236663
0.2390707
0.4144953
0.6628196
0.9955167
1.422561
1.953035
2.596054
3.351459
4.19969
5.125813
6.131641
7.213911
8.365193
9.575104
10.82986
12.11172
13.39861
14.66412
15.87832
17.00922
18.02503
18.89661
19.59984
20.11745
20.44
20.56604
20.50147
20.25831
19.85326
19.30604
18.63801
17.87083
17.02553
16.12178
15.17745
14.20835
13.22817
12.24851
11.27906
10.32766
9.400566
8.502606
7.637432
6.807705
6.015281
5.261398
4.54687
3.872299
3.238391
2.646436
2.099149
1.602012
1.164748
0.8010032
0.5228077
0.3304629
0.2084077
0.1339168
0.08801588
0.05878212
0.03953663
0.02656119
0.01765976
0.01153084
0.007260872
0.004440099
0.002298484
0.001501995
-4.332341e-05
0.0002890938
)
;
    }
    wall
    {
        type            calculated;
        value           nonuniform List<scalar> 2(2.111177e-08 2.111175e-08);
    }
    frontAndBack
    {
        type            empty;
    }
    middle
    {
        type            symmetryPlane;
        value           nonuniform List<scalar> 2(0.0002890942 0.0002890934);
    }
}


// ************************************************************************* //
