/*--------------------------------*- C++ -*----------------------------------*\
| =========                 |                                                 |
| \\      /  F ield         | foam-extend: Open Source CFD                    |
|  \\    /   O peration     | Version:     4.0                                |
|   \\  /    A nd           | Web:         http://www.foam-extend.org         |
|    \\/     M anipulation  |                                                 |
\*---------------------------------------------------------------------------*/
FoamFile
{
    version     2.0;
    format      ascii;
    class       volScalarField;
    location    "100";
    object      eVyy;
}
// * * * * * * * * * * * * * * * * * * * * * * * * * * * * * * * * * * * * * //

dimensions      [0 2 -3 0 0 0 0];

internalField   nonuniform List<scalar> 
150
(
5.165245e-11
5.165242e-11
1.228753e-08
1.228752e-08
1.8698e-07
1.869799e-07
1.180321e-06
1.180321e-06
4.703548e-06
4.703545e-06
1.405119e-05
1.405118e-05
3.434072e-05
3.434071e-05
7.224954e-05
7.224952e-05
0.0001352657
0.0001352656
0.000230783
0.000230783
0.0003655147
0.0003655148
0.0005454698
0.00054547
0.0007740253
0.0007740258
0.001156061
0.001156062
0.001665958
0.00166596
0.002313106
0.002313109
0.003125172
0.003125177
0.004135732
0.004135738
0.005384957
0.005384966
0.006919502
0.006919513
0.00879178
0.008791794
0.01105844
0.01105846
0.01377796
0.01377798
0.01700744
0.01700746
0.02079883
0.02079886
0.02519508
0.02519511
0.03022652
0.03022655
0.03590797
0.035908
0.04223667
0.04223671
0.0491913
0.04919135
0.05673175
0.0567318
0.06479963
0.06479967
0.07331925
0.07331929
0.08219887
0.08219891
0.09133203
0.09133206
0.100599
0.100599
0.1098681
0.1098681
0.1189972
0.1189973
0.1278354
0.1278355
0.1362245
0.1362245
0.1440011
0.1440011
0.1509992
0.1509992
0.1570527
0.1570527
0.161999
0.161999
0.1656807
0.1656807
0.167949
0.1679491
0.168667
0.1686671
0.1677135
0.1677136
0.1649872
0.1649873
0.1604104
0.1604106
0.1539334
0.1539337
0.1455387
0.145539
0.1352463
0.1352467
0.1231242
0.1231245
0.1093072
0.1093076
0.09404051
0.09404085
0.07776429
0.07776459
0.06124156
0.06124174
0.0456399
0.04564002
0.03232163
0.03232172
0.02221125
0.0222113
0.01526686
0.0152669
0.0107216
0.01072162
0.007722638
0.007722649
0.0056659
0.005665907
0.004193362
0.004193364
0.00310126
0.003101263
0.002266674
0.002266676
0.00162198
0.001621982
0.001115034
0.001115034
0.0007403374
0.0007403364
0.0004127751
0.0004127734
0.000287162
0.0002871617
-8.67802e-06
-8.677721e-06
5.941568e-05
5.941553e-05
)
;

boundaryField
{
    leftandright
    {
        type            cyclic;
        value           nonuniform List<scalar> 
150
(
5.165244e-11
1.228753e-08
1.869799e-07
1.180321e-06
4.703547e-06
1.405118e-05
3.434071e-05
7.224953e-05
0.0001352657
0.000230783
0.0003655147
0.0005454699
0.0007740255
0.001156061
0.001665959
0.002313107
0.003125174
0.004135735
0.005384961
0.006919507
0.008791787
0.01105845
0.01377797
0.01700745
0.02079884
0.02519509
0.03022654
0.03590798
0.04223669
0.04919132
0.05673178
0.06479965
0.07331927
0.08219889
0.09133205
0.100599
0.1098681
0.1189973
0.1278355
0.1362245
0.1440011
0.1509992
0.1570527
0.161999
0.1656807
0.167949
0.168667
0.1677136
0.1649873
0.1604105
0.1539336
0.1455388
0.1352465
0.1231244
0.1093074
0.09404068
0.07776444
0.06124165
0.04563996
0.03232168
0.02221127
0.01526688
0.01072161
0.007722644
0.005665904
0.004193363
0.003101262
0.002266675
0.001621981
0.001115034
0.0007403369
0.0004127743
0.0002871618
-8.67787e-06
5.94156e-05
5.165244e-11
1.228753e-08
1.869799e-07
1.180321e-06
4.703547e-06
1.405118e-05
3.434071e-05
7.224953e-05
0.0001352657
0.000230783
0.0003655147
0.0005454699
0.0007740255
0.001156061
0.001665959
0.002313107
0.003125174
0.004135735
0.005384961
0.006919507
0.008791787
0.01105845
0.01377797
0.01700745
0.02079884
0.02519509
0.03022654
0.03590798
0.04223669
0.04919132
0.05673178
0.06479965
0.07331927
0.08219889
0.09133205
0.100599
0.1098681
0.1189973
0.1278355
0.1362245
0.1440011
0.1509992
0.1570527
0.161999
0.1656807
0.167949
0.168667
0.1677136
0.1649873
0.1604105
0.1539336
0.1455388
0.1352465
0.1231244
0.1093074
0.09404068
0.07776444
0.06124165
0.04563996
0.03232168
0.02221127
0.01526688
0.01072161
0.007722644
0.005665904
0.004193363
0.003101262
0.002266675
0.001621981
0.001115034
0.0007403369
0.0004127743
0.0002871618
-8.67787e-06
5.94156e-05
)
;
    }
    wall
    {
        type            calculated;
        value           nonuniform List<scalar> 2(5.294098e-10 5.294094e-10);
    }
    frontAndBack
    {
        type            empty;
    }
    middle
    {
        type            symmetryPlane;
        value           nonuniform List<scalar> 2(5.941568e-05 5.941553e-05);
    }
}


// ************************************************************************* //
