/*--------------------------------*- C++ -*----------------------------------*\
| =========                 |                                                 |
| \\      /  F ield         | foam-extend: Open Source CFD                    |
|  \\    /   O peration     | Version:     4.0                                |
|   \\  /    A nd           | Web:         http://www.foam-extend.org         |
|    \\/     M anipulation  |                                                 |
\*---------------------------------------------------------------------------*/
FoamFile
{
    version     2.0;
    format      ascii;
    class       volScalarField;
    location    "100";
    object      f;
}
// * * * * * * * * * * * * * * * * * * * * * * * * * * * * * * * * * * * * * //

dimensions      [0 0 -1 0 0 0 0];

internalField   nonuniform List<scalar> 
150
(
0.02622326
0.02622326
0.07913339
0.07913339
0.1338668
0.1338668
0.1905026
0.1905026
0.2491115
0.2491115
0.3097521
0.3097521
0.372466
0.372466
0.4372711
0.4372711
0.5041538
0.5041538
0.5730586
0.5730586
0.6438769
0.6438769
0.7164321
0.7164321
0.7904635
0.7904635
0.8656083
0.8656083
0.9416772
0.9416772
1.018459
1.018459
1.09569
1.09569
1.17307
1.17307
1.250267
1.250267
1.326932
1.326932
1.402708
1.402708
1.477239
1.477239
1.550175
1.550175
1.621187
1.621187
1.689962
1.689962
1.756217
1.756217
1.819695
1.819695
1.880171
1.880171
1.937446
1.937446
1.991356
1.991356
2.04176
2.04176
2.088548
2.088548
2.131633
2.131633
2.170949
2.170949
2.206454
2.206454
2.23812
2.23812
2.26594
2.26594
2.28992
2.28992
2.31008
2.31008
2.326453
2.326453
2.339084
2.339084
2.348026
2.348026
2.353377
2.353377
2.355365
2.355365
2.354206
2.354206
2.350101
2.350101
2.343244
2.343244
2.333813
2.333813
2.321977
2.321977
2.307893
2.307892
2.291705
2.291705
2.273551
2.273551
2.253553
2.253553
2.231825
2.231825
2.20847
2.20847
2.183582
2.183582
2.157248
2.157248
2.129545
2.129545
2.100554
2.100554
2.070356
2.070356
2.039048
2.039048
2.006747
2.006747
1.973599
1.973599
1.939782
1.939782
1.905521
1.905521
1.871091
1.871091
1.836839
1.836839
1.803199
1.803199
1.770725
1.770725
1.7401
1.7401
1.71212
1.71212
1.687674
1.687674
1.667726
1.667726
1.653306
1.653306
1.645508
1.645508
)
;

boundaryField
{
    leftandright
    {
        type            cyclic;
        value           nonuniform List<scalar> 
150
(
0.02622326
0.07913339
0.1338668
0.1905026
0.2491115
0.3097521
0.372466
0.4372711
0.5041538
0.5730586
0.6438769
0.7164321
0.7904635
0.8656083
0.9416772
1.018459
1.09569
1.17307
1.250267
1.326932
1.402708
1.477239
1.550175
1.621187
1.689962
1.756217
1.819695
1.880171
1.937446
1.991356
2.04176
2.088548
2.131633
2.170949
2.206454
2.23812
2.26594
2.28992
2.31008
2.326453
2.339084
2.348026
2.353377
2.355365
2.354206
2.350101
2.343244
2.333813
2.321977
2.307893
2.291705
2.273551
2.253553
2.231825
2.20847
2.183582
2.157248
2.129545
2.100554
2.070356
2.039048
2.006747
1.973599
1.939782
1.905521
1.871091
1.836839
1.803199
1.770725
1.7401
1.71212
1.687674
1.667726
1.653306
1.645508
0.02622326
0.07913339
0.1338668
0.1905026
0.2491115
0.3097521
0.372466
0.4372711
0.5041538
0.5730586
0.6438769
0.7164321
0.7904635
0.8656083
0.9416772
1.018459
1.09569
1.17307
1.250267
1.326932
1.402708
1.477239
1.550175
1.621187
1.689962
1.756217
1.819695
1.880171
1.937446
1.991356
2.04176
2.088548
2.131633
2.170949
2.206454
2.23812
2.26594
2.28992
2.31008
2.326453
2.339084
2.348026
2.353377
2.355365
2.354206
2.350101
2.343244
2.333813
2.321977
2.307893
2.291705
2.273551
2.253553
2.231825
2.20847
2.183582
2.157248
2.129545
2.100554
2.070356
2.039048
2.006747
1.973599
1.939782
1.905521
1.871091
1.836839
1.803199
1.770725
1.7401
1.71212
1.687674
1.667726
1.653306
1.645508
)
;
    }
    wall
    {
        type            fixedValue;
        value           uniform 1e-10;
    }
    frontAndBack
    {
        type            empty;
    }
    middle
    {
        type            symmetryPlane;
        value           nonuniform List<scalar> 2(1.645508 1.645508);
    }
}


// ************************************************************************* //
