/*--------------------------------*- C++ -*----------------------------------*\
| =========                 |                                                 |
| \\      /  F ield         | foam-extend: Open Source CFD                    |
|  \\    /   O peration     | Version:     4.0                                |
|   \\  /    A nd           | Web:         http://www.foam-extend.org         |
|    \\/     M anipulation  |                                                 |
\*---------------------------------------------------------------------------*/
FoamFile
{
    version     2.0;
    format      ascii;
    class       volScalarField;
    location    "100";
    object      fp;
}
// * * * * * * * * * * * * * * * * * * * * * * * * * * * * * * * * * * * * * //

dimensions      [0 0 0 0 0 0 0];

internalField   nonuniform List<scalar> 
150
(
1.727889
1.727889
1.727419
1.727418
1.726548
1.726548
1.725275
1.725274
1.723537
1.723537
1.72124
1.72124
1.7183
1.7183
1.714692
1.714692
1.710491
1.710491
1.705877
1.705877
1.701074
1.701074
1.696173
1.696174
1.690696
1.690697
1.684039
1.684039
1.676391
1.676392
1.668613
1.668614
1.661284
1.661285
1.654647
1.654648
1.648731
1.648732
1.643428
1.643429
1.638535
1.638536
1.633779
1.63378
1.62884
1.628841
1.623379
1.62338
1.617065
1.617065
1.609606
1.609607
1.600776
1.600776
1.590427
1.590427
1.578497
1.578498
1.565008
1.565009
1.55005
1.55005
1.533766
1.533766
1.516338
1.516338
1.497964
1.497964
1.478848
1.478848
1.459185
1.459185
1.439156
1.439156
1.41892
1.41892
1.398611
1.398611
1.378338
1.378338
1.358186
1.358186
1.338216
1.338216
1.318468
1.318468
1.298965
1.298965
1.279714
1.279714
1.260712
1.260712
1.241945
1.241945
1.223392
1.223392
1.205029
1.205029
1.186832
1.186833
1.168778
1.168778
1.150848
1.150848
1.133035
1.133035
1.115352
1.115353
1.097852
1.097852
1.08066
1.080661
1.064045
1.064045
1.048496
1.048497
1.034761
1.034761
1.023646
1.023646
1.01556
1.01556
1.010202
1.010202
1.006814
1.006814
1.00466
1.00466
1.003245
1.003245
1.002282
1.002282
1.001606
1.001606
1.001121
1.001121
1.00077
1.00077
1.000511
1.000511
1.000328
1.000328
1.000179
1.000179
1.00012
1.00012
1
1
1.000024
1.000024
)
;

boundaryField
{
    leftandright
    {
        type            cyclic;
        value           nonuniform List<scalar> 
150
(
1.727889
1.727418
1.726548
1.725275
1.723537
1.72124
1.7183
1.714692
1.710491
1.705877
1.701074
1.696173
1.690697
1.684039
1.676392
1.668614
1.661284
1.654647
1.648731
1.643428
1.638535
1.633779
1.628841
1.623379
1.617065
1.609606
1.600776
1.590427
1.578497
1.565008
1.55005
1.533766
1.516338
1.497964
1.478848
1.459185
1.439156
1.41892
1.398611
1.378338
1.358186
1.338216
1.318468
1.298965
1.279714
1.260712
1.241945
1.223392
1.205029
1.186833
1.168778
1.150848
1.133035
1.115352
1.097852
1.08066
1.064045
1.048496
1.034761
1.023646
1.01556
1.010202
1.006814
1.00466
1.003245
1.002282
1.001606
1.001121
1.00077
1.000511
1.000328
1.000179
1.00012
1
1.000024
1.727889
1.727418
1.726548
1.725275
1.723537
1.72124
1.7183
1.714692
1.710491
1.705877
1.701074
1.696173
1.690697
1.684039
1.676392
1.668614
1.661284
1.654647
1.648731
1.643428
1.638535
1.633779
1.628841
1.623379
1.617065
1.609606
1.600776
1.590427
1.578497
1.565008
1.55005
1.533766
1.516338
1.497964
1.478848
1.459185
1.439156
1.41892
1.398611
1.378338
1.358186
1.338216
1.318468
1.298965
1.279714
1.260712
1.241945
1.223392
1.205029
1.186833
1.168778
1.150848
1.133035
1.115352
1.097852
1.08066
1.064045
1.048496
1.034761
1.023646
1.01556
1.010202
1.006814
1.00466
1.003245
1.002282
1.001606
1.001121
1.00077
1.000511
1.000328
1.000179
1.00012
1
1.000024
)
;
    }
    wall
    {
        type            calculated;
        value           nonuniform List<scalar> 2(1.727889 1.727889);
    }
    frontAndBack
    {
        type            empty;
    }
    middle
    {
        type            symmetryPlane;
        value           nonuniform List<scalar> 2(1.000024 1.000024);
    }
}


// ************************************************************************* //
