/*--------------------------------*- C++ -*----------------------------------*\
| =========                 |                                                 |
| \\      /  F ield         | foam-extend: Open Source CFD                    |
|  \\    /   O peration     | Version:     4.0                                |
|   \\  /    A nd           | Web:         http://www.foam-extend.org         |
|    \\/     M anipulation  |                                                 |
\*---------------------------------------------------------------------------*/
FoamFile
{
    version     2.0;
    format      ascii;
    class       volScalarField;
    location    "100";
    object      k;
}
// * * * * * * * * * * * * * * * * * * * * * * * * * * * * * * * * * * * * * //

dimensions      [0 2 -2 0 0 0 0];

internalField   nonuniform List<scalar> 
150
(
0.002434036
0.002434036
0.02643054
0.02643054
0.07081875
0.07081876
0.1368604
0.1368604
0.2258948
0.2258948
0.3392487
0.3392487
0.4780934
0.4780934
0.6432686
0.6432687
0.8351124
0.8351125
1.053349
1.053349
1.297073
1.297074
1.564848
1.564848
1.854882
1.854882
2.163807
2.163807
2.483566
2.483566
2.806053
2.806053
3.123274
3.123275
3.427551
3.427551
3.711931
3.711931
3.970525
3.970525
4.198738
4.198738
4.393391
4.393391
4.552736
4.552736
4.676369
4.676369
4.765078
4.765078
4.820633
4.820633
4.845557
4.845557
4.842896
4.842896
4.815996
4.815996
4.768319
4.768319
4.703288
4.703288
4.624165
4.624165
4.533973
4.533973
4.435442
4.435442
4.330982
4.330982
4.22268
4.22268
4.112304
4.112304
4.001326
4.001326
3.890945
3.890945
3.782115
3.782115
3.675571
3.675571
3.571861
3.571861
3.471367
3.471367
3.374331
3.374331
3.280875
3.280875
3.191016
3.191016
3.104679
3.104679
3.021711
3.021711
2.941886
2.941886
2.864911
2.864911
2.790429
2.790429
2.718019
2.718019
2.647199
2.647199
2.577422
2.577422
2.508077
2.508077
2.438493
2.438493
2.367953
2.367953
2.295728
2.295728
2.221154
2.221154
2.143739
2.143739
2.063303
2.063303
1.980069
1.980069
1.894652
1.894652
1.807978
1.807978
1.721175
1.721175
1.635489
1.635489
1.552211
1.552211
1.472623
1.472623
1.397988
1.397988
1.329615
1.329615
1.268877
1.268877
1.217187
1.217187
1.17598
1.17598
1.146753
1.146752
1.13113
1.13113
)
;

boundaryField
{
    leftandright
    {
        type            cyclic;
        value           nonuniform List<scalar> 
150
(
0.002434036
0.02643054
0.07081875
0.1368604
0.2258948
0.3392487
0.4780934
0.6432686
0.8351124
1.053349
1.297074
1.564848
1.854882
2.163807
2.483566
2.806053
3.123274
3.427551
3.711931
3.970525
4.198738
4.393391
4.552736
4.676369
4.765078
4.820633
4.845557
4.842896
4.815996
4.768319
4.703288
4.624165
4.533973
4.435442
4.330982
4.22268
4.112304
4.001326
3.890945
3.782115
3.675571
3.571861
3.471367
3.374331
3.280875
3.191016
3.104679
3.021711
2.941886
2.864911
2.790429
2.718019
2.647199
2.577422
2.508077
2.438493
2.367953
2.295728
2.221154
2.143739
2.063303
1.980069
1.894652
1.807978
1.721175
1.635489
1.552211
1.472623
1.397988
1.329615
1.268877
1.217187
1.17598
1.146753
1.13113
0.002434036
0.02643054
0.07081875
0.1368604
0.2258948
0.3392487
0.4780934
0.6432686
0.8351124
1.053349
1.297074
1.564848
1.854882
2.163807
2.483566
2.806053
3.123274
3.427551
3.711931
3.970525
4.198738
4.393391
4.552736
4.676369
4.765078
4.820633
4.845557
4.842896
4.815996
4.768319
4.703288
4.624165
4.533973
4.435442
4.330982
4.22268
4.112304
4.001326
3.890945
3.782115
3.675571
3.571861
3.471367
3.374331
3.280875
3.191016
3.104679
3.021711
2.941886
2.864911
2.790429
2.718019
2.647199
2.577422
2.508077
2.438493
2.367953
2.295728
2.221154
2.143739
2.063303
1.980069
1.894652
1.807978
1.721175
1.635489
1.552211
1.472623
1.397988
1.329615
1.268877
1.217187
1.17598
1.146753
1.13113
)
;
    }
    wall
    {
        type            fixedValue;
        value           uniform 1e-10;
    }
    frontAndBack
    {
        type            empty;
    }
    middle
    {
        type            symmetryPlane;
        value           nonuniform List<scalar> 2(1.13113 1.13113);
    }
}


// ************************************************************************* //
