/*--------------------------------*- C++ -*----------------------------------*\
| =========                 |                                                 |
| \\      /  F ield         | foam-extend: Open Source CFD                    |
|  \\    /   O peration     | Version:     4.0                                |
|   \\  /    A nd           | Web:         http://www.foam-extend.org         |
|    \\/     M anipulation  |                                                 |
\*---------------------------------------------------------------------------*/
FoamFile
{
    version     2.0;
    format      ascii;
    class       volSymmTensorField;
    location    "100";
    object      N;
}
// * * * * * * * * * * * * * * * * * * * * * * * * * * * * * * * * * * * * * //

dimensions      [0 2 -2 0 0 0 0];

internalField   nonuniform List<symmTensor> 
150
(
(0.00478102 0 0 1.955733e-07 0 8.685608e-05)
(0.004781021 0 0 1.955733e-07 0 8.685611e-05)
(0.05190799 0 0 9.724554e-06 0 0.0009433686)
(0.051908 0 0 9.724556e-06 0 0.0009433689)
(0.1390479 0 0 6.08468e-05 0 0.002528789)
(0.1390479 0 0 6.084681e-05 0 0.00252879)
(0.2671187 0 0 0.0002087426 0 0.006393312)
(0.2671187 0 0 0.0002087427 0 0.006393313)
(0.4382762 0 0 0.0005275629 0 0.01298584)
(0.4382763 0 0 0.000527563 0 0.01298584)
(0.6544699 0 0 0.001105938 0 0.0229216)
(0.6544699 0 0 0.001105939 0 0.0229216)
(0.9173498 8.76371e-19 0 0.002042005 0 0.03679495)
(0.9173499 -8.763711e-19 0 0.002042005 0 0.03679496)
(1.227969 0 0 0.003438223 0 0.05513002)
(1.227969 0 0 0.003438223 0 0.05513003)
(1.586467 0 0 0.005396482 0 0.07836177)
(1.586467 -3.330763e-18 0 0.005396482 0 0.07836178)
(1.991862 0 0 0.008014059 0 0.1068216)
(1.991862 0 0 0.00801406 0 0.1068216)
(2.442034 0 0 0.01138094 0 0.1407321)
(2.442034 0 0 0.01138094 0 0.1407322)
(2.933902 -1.294297e-17 0 0.01557867 0 0.1802148)
(2.933902 1.294297e-17 0 0.01557867 0 0.1802148)
(3.463776 0 0 0.02068077 0 0.2253077)
(3.463776 0 0 0.02068078 0 0.2253077)
(4.025152 1.7719e-17 0 0.02672221 0 0.2757392)
(4.025153 -1.7719e-17 0 0.02672221 0 0.2757393)
(4.602698 0 0 0.03370059 0 0.3307328)
(4.602698 0 0 0.0337006 0 0.3307329)
(5.181019 -2.240339e-17 0 0.04161393 0 0.3894723)
(5.181019 0 0 0.04161394 0 0.3894724)
(5.745055 0 0 0.05044737 0 0.4510461)
(5.745056 0 0 0.05044738 0 0.4510462)
(6.280487 5.296211e-17 0 0.06016813 0 0.5144474)
(6.280487 0 0 0.06016813 0 0.5144475)
(6.774516 0 0 0.07072593 0 0.5786205)
(6.774516 0 0 0.07072594 0 0.5786205)
(7.216485 -1.182807e-16 0 0.08205473 0 0.6425094)
(7.216486 5.914035e-17 0 0.08205474 0 0.6425095)
(7.598294 0 0 0.09407534 0 0.7051058)
(7.598294 0 0 0.09407535 0 0.7051059)
(7.914593 1.258411e-16 0 0.1066988 0 0.7654905)
(7.914593 0 0 0.1066988 0 0.7654906)
(8.162774 1.277624e-16 0 0.1198303 0 0.8228671)
(8.162774 0 0 0.1198303 0 0.8228671)
(8.342781 0 0 0.1333727 0 0.8765839)
(8.342782 0 0 0.1333727 0 0.876584)
(8.45678 -1.2812e-16 0 0.1472299 0 0.926146)
(8.45678 0 0 0.1472299 0 0.9261461)
(8.50874 -1.267392e-16 0 0.1613099 0 0.9712157)
(8.50874 0 0 0.1613099 0 0.9712157)
(8.503983 -2.489452e-16 0 0.1755269 0 1.011605)
(8.503983 0 0 0.1755269 0 1.011605)
(8.448729 0 0 0.1898028 0 1.04726)
(8.448729 0 0 0.1898028 0 1.04726)
(8.349681 0 0 0.204068 0 1.078243)
(8.349681 0 0 0.204068 0 1.078243)
(8.213666 0 0 0.2182616 0 1.10471)
(8.213666 0 0 0.2182616 0 1.104711)
(8.047352 2.182072e-16 0 0.2323311 0 1.126892)
(8.047352 -2.182072e-16 0 0.2323311 0 1.126892)
(7.85703 2.085883e-16 0 0.246232 0 1.145067)
(7.85703 0 0 0.246232 0 1.145067)
(7.648468 -5.958582e-16 0 0.2599267 0 1.159551)
(7.648468 0 0 0.2599267 0 1.159551)
(7.426826 0 0 0.2733836 0 1.170674)
(7.426826 0 0 0.2733836 0 1.170674)
(7.196617 3.565752e-16 0 0.286576 0 1.178771)
(7.196618 0 0 0.286576 0 1.178771)
(6.961708 0 0 0.299481 0 1.18417)
(6.961708 0 0 0.299481 0 1.18417)
(6.725343 6.331166e-16 0 0.3120786 0 1.187186)
(6.725343 -3.165583e-16 0 0.3120786 0 1.187186)
(6.490188 0 0 0.3243508 0 1.188113)
(6.490188 0 0 0.3243508 0 1.188113)
(6.258387 0 0 0.336281 0 1.187223)
(6.258387 0 0 0.336281 0 1.187223)
(6.031615 0 0 0.3478533 0 1.184761)
(6.031615 0 0 0.3478533 0 1.184761)
(5.811141 0 0 0.3590525 0 1.180949)
(5.811141 0 0 0.3590525 0 1.180949)
(5.59788 0 0 0.3698636 0 1.175978)
(5.59788 0 0 0.3698636 0 1.175978)
(5.392443 0 0 0.380272 0 1.170018)
(5.392444 0 0 0.380272 0 1.170018)
(5.195187 -7.889637e-16 0 0.3902636 0 1.163212)
(5.195187 0 0 0.3902636 0 1.163212)
(5.00625 -3.669991e-16 0 0.3998231 0 1.155677)
(5.00625 0 0 0.3998231 0 1.155677)
(4.825593 0 0 0.4089332 0 1.147505)
(4.825593 0 0 0.4089332 0 1.147505)
(4.653022 0 0 0.417574 0 1.138762)
(4.653022 0 0 0.417574 0 1.138762)
(4.488211 0 0 0.4257224 0 1.129488)
(4.488211 0 0 0.4257224 0 1.129488)
(4.33072 5.460131e-16 0 0.4333522 0 1.1197)
(4.33072 0 0 0.4333522 0 1.1197)
(4.180001 5.062972e-16 0 0.4404336 0 1.109387)
(4.180001 -5.062972e-16 0 0.4404336 0 1.109387)
(4.035408 0 0 0.4469334 0 1.098516)
(4.035408 0 0 0.4469334 0 1.098516)
(3.896196 0 0 0.4528149 0 1.087027)
(3.896196 0 0 0.4528149 0 1.087027)
(3.761527 0 0 0.4580383 0 1.074833)
(3.761528 0 0 0.4580383 0 1.074833)
(3.630463 0 0 0.4625604 0 1.061821)
(3.630463 0 0 0.4625604 0 1.061821)
(3.501968 0 0 0.4663356 0 1.047851)
(3.501968 0 0 0.4663355 0 1.047851)
(3.374917 -6.323964e-16 0 0.4693155 0 1.032754)
(3.374917 6.323964e-16 0 0.4693155 0 1.032754)
(3.248114 0 0 0.4714505 0 1.016341)
(3.248114 0 0 0.4714504 0 1.016341)
(3.12036 0 0 0.4726909 0 0.9984063)
(3.12036 0 0 0.4726909 0 0.9984063)
(2.990561 -4.888135e-16 0 0.4729908 0 0.9787559)
(2.990561 4.888135e-16 0 0.4729908 0 0.9787558)
(2.857924 0 0 0.472314 0 0.957239)
(2.857924 0 0 0.4723139 0 0.957239)
(2.722168 0 0 0.4706416 0 0.9337966)
(2.722168 0 0 0.4706416 0 0.9337965)
(2.583667 0 0 0.4679771 0 0.9084932)
(2.583667 0 0 0.4679771 0 0.9084932)
(2.443442 -1.321228e-15 0 0.4643419 0 0.8815197)
(2.443442 0 0 0.4643419 0 0.8815196)
(2.303029 0 0 0.4597612 0 0.8531652)
(2.303029 -5.926741e-16 0 0.4597612 0 0.8531652)
(2.164323 0 0 0.4542451 0 0.8237817)
(2.164323 0 0 0.4542451 0 0.8237817)
(2.029464 0 0 0.4477646 0 0.7937485)
(2.029464 0 0 0.4477646 0 0.7937485)
(1.900757 0 0 0.4402242 0 0.7634405)
(1.900757 -8.385945e-16 0 0.4402242 0 0.7634405)
(1.780627 0 0 0.431426 0 0.7331933)
(1.780627 0 0 0.431426 0 0.7331933)
(1.670959 0 0 0.4214669 0 0.7035511)
(1.670959 0 0 0.4214669 0 0.7035511)
(1.572681 0 0 0.4110801 0 0.6754687)
(1.572681 0 0 0.41108 0 0.6754687)
(1.486924 0 0 0.4009563 0 0.6498736)
(1.486924 0 0 0.4009563 0 0.6498736)
(1.41497 0 0 0.3917422 0 0.6276624)
(1.41497 0 0 0.3917422 0 0.6276624)
(1.358227 0 0 0.3840355 0 0.6096981)
(1.358227 0 0 0.3840355 0 0.6096981)
(1.318291 0 0 0.3783874 0 0.5968271)
(1.318291 0 0 0.3783874 0 0.5968271)
(1.297048 -7.473369e-16 0 0.3753076 0 0.5899044)
(1.297048 0 0 0.3753076 0 0.5899044)
)
;

boundaryField
{
    leftandright
    {
        type            cyclic;
        value           nonuniform List<symmTensor> 
150
(
(0.00478102 0 0 1.955733e-07 0 8.685609e-05)
(0.05190799 0 0 9.724555e-06 0 0.0009433688)
(0.1390479 0 0 6.084681e-05 0 0.002528789)
(0.2671187 0 0 0.0002087426 0 0.006393312)
(0.4382763 0 0 0.0005275629 0 0.01298584)
(0.6544699 0 0 0.001105939 0 0.0229216)
(0.9173499 -4.819086e-34 0 0.002042005 0 0.03679496)
(1.227969 0 0 0.003438223 0 0.05513002)
(1.586467 -1.665381e-18 0 0.005396482 0 0.07836177)
(1.991862 0 0 0.008014059 0 0.1068216)
(2.442034 0 0 0.01138094 0 0.1407322)
(2.933902 -1.014648e-33 0 0.01557867 0 0.1802148)
(3.463776 0 0 0.02068078 0 0.2253077)
(4.025153 4.604058e-33 0 0.02672221 0 0.2757392)
(4.602698 0 0 0.03370059 0 0.3307329)
(5.181019 -1.120169e-17 0 0.04161393 0 0.3894723)
(5.745055 0 0 0.05044738 0 0.4510461)
(6.280487 2.648105e-17 0 0.06016813 0 0.5144475)
(6.774516 0 0 0.07072594 0 0.5786205)
(7.216486 -2.957017e-17 0 0.08205474 0 0.6425094)
(7.598294 0 0 0.09407534 0 0.7051058)
(7.914593 6.292056e-17 0 0.1066988 0 0.7654906)
(8.162774 6.38812e-17 0 0.1198303 0 0.8228671)
(8.342781 0 0 0.1333727 0 0.876584)
(8.45678 -6.405998e-17 0 0.1472299 0 0.926146)
(8.50874 -6.336962e-17 0 0.1613099 0 0.9712157)
(8.503983 -1.244726e-16 0 0.1755269 0 1.011605)
(8.448729 0 0 0.1898028 0 1.04726)
(8.349681 0 0 0.204068 0 1.078243)
(8.213666 0 0 0.2182616 0 1.10471)
(8.047352 0 0 0.2323311 0 1.126892)
(7.85703 1.042942e-16 0 0.246232 0 1.145067)
(7.648468 -2.979291e-16 0 0.2599267 0 1.159551)
(7.426826 0 0 0.2733836 0 1.170674)
(7.196618 1.782876e-16 0 0.286576 0 1.178771)
(6.961708 0 0 0.299481 0 1.18417)
(6.725343 1.582791e-16 0 0.3120786 0 1.187186)
(6.490188 0 0 0.3243508 0 1.188113)
(6.258387 0 0 0.336281 0 1.187223)
(6.031615 0 0 0.3478533 0 1.184761)
(5.811141 0 0 0.3590525 0 1.180949)
(5.59788 0 0 0.3698636 0 1.175978)
(5.392443 0 0 0.380272 0 1.170018)
(5.195187 -3.944818e-16 0 0.3902636 0 1.163212)
(5.00625 -1.834995e-16 0 0.3998231 0 1.155677)
(4.825593 0 0 0.4089332 0 1.147505)
(4.653022 0 0 0.417574 0 1.138762)
(4.488211 0 0 0.4257224 0 1.129488)
(4.33072 2.730066e-16 0 0.4333522 0 1.1197)
(4.180001 5.606933e-31 0 0.4404336 0 1.109387)
(4.035408 0 0 0.4469334 0 1.098516)
(3.896196 0 0 0.4528149 0 1.087027)
(3.761527 0 0 0.4580383 0 1.074833)
(3.630463 0 0 0.4625604 0 1.061821)
(3.501968 0 0 0.4663356 0 1.047851)
(3.374917 -5.555933e-32 0 0.4693155 0 1.032754)
(3.248114 0 0 0.4714505 0 1.016341)
(3.12036 0 0 0.4726909 0 0.9984063)
(2.990561 -9.974457e-32 0 0.4729908 0 0.9787558)
(2.857924 0 0 0.4723139 0 0.957239)
(2.722168 0 0 0.4706416 0 0.9337966)
(2.583667 0 0 0.4679771 0 0.9084932)
(2.443442 -6.60614e-16 0 0.4643419 0 0.8815196)
(2.303029 -2.96337e-16 0 0.4597612 0 0.8531652)
(2.164323 0 0 0.4542451 0 0.8237817)
(2.029464 0 0 0.4477646 0 0.7937485)
(1.900757 -4.192972e-16 0 0.4402242 0 0.7634405)
(1.780627 0 0 0.431426 0 0.7331933)
(1.670959 0 0 0.4214669 0 0.7035511)
(1.572681 0 0 0.4110801 0 0.6754687)
(1.486924 0 0 0.4009563 0 0.6498736)
(1.41497 0 0 0.3917422 0 0.6276624)
(1.358227 0 0 0.3840355 0 0.6096981)
(1.318291 0 0 0.3783874 0 0.5968271)
(1.297048 -3.736685e-16 0 0.3753076 0 0.5899044)
(0.00478102 0 0 1.955733e-07 0 8.685609e-05)
(0.05190799 0 0 9.724555e-06 0 0.0009433688)
(0.1390479 0 0 6.084681e-05 0 0.002528789)
(0.2671187 0 0 0.0002087426 0 0.006393312)
(0.4382763 0 0 0.0005275629 0 0.01298584)
(0.6544699 0 0 0.001105939 0 0.0229216)
(0.9173499 -5.35454e-34 0 0.002042005 0 0.03679496)
(1.227969 0 0 0.003438223 0 0.05513002)
(1.586467 -1.665381e-18 0 0.005396482 0 0.07836177)
(1.991862 0 0 0.008014059 0 0.1068216)
(2.442034 0 0 0.01138094 0 0.1407322)
(2.933902 -1.014648e-33 0 0.01557867 0 0.1802148)
(3.463776 0 0 0.02068078 0 0.2253077)
(4.025153 4.604058e-33 0 0.02672221 0 0.2757392)
(4.602698 0 0 0.03370059 0 0.3307329)
(5.181019 -1.120169e-17 0 0.04161393 0 0.3894723)
(5.745055 0 0 0.05044738 0 0.4510461)
(6.280487 2.648105e-17 0 0.06016813 0 0.5144475)
(6.774516 0 0 0.07072594 0 0.5786205)
(7.216486 -2.957017e-17 0 0.08205474 0 0.6425094)
(7.598294 0 0 0.09407534 0 0.7051058)
(7.914593 6.292056e-17 0 0.1066988 0 0.7654906)
(8.162774 6.38812e-17 0 0.1198303 0 0.8228671)
(8.342781 0 0 0.1333727 0 0.876584)
(8.45678 -6.405998e-17 0 0.1472299 0 0.926146)
(8.50874 -6.336962e-17 0 0.1613099 0 0.9712157)
(8.503983 -1.244726e-16 0 0.1755269 0 1.011605)
(8.448729 0 0 0.1898028 0 1.04726)
(8.349681 0 0 0.204068 0 1.078243)
(8.213666 0 0 0.2182616 0 1.10471)
(8.047352 0 0 0.2323311 0 1.126892)
(7.85703 1.042942e-16 0 0.246232 0 1.145067)
(7.648468 -2.979291e-16 0 0.2599267 0 1.159551)
(7.426826 0 0 0.2733836 0 1.170674)
(7.196618 1.782876e-16 0 0.286576 0 1.178771)
(6.961708 0 0 0.299481 0 1.18417)
(6.725343 1.582791e-16 0 0.3120786 0 1.187186)
(6.490188 0 0 0.3243508 0 1.188113)
(6.258387 0 0 0.336281 0 1.187223)
(6.031615 0 0 0.3478533 0 1.184761)
(5.811141 0 0 0.3590525 0 1.180949)
(5.59788 0 0 0.3698636 0 1.175978)
(5.392443 0 0 0.380272 0 1.170018)
(5.195187 -3.944818e-16 0 0.3902636 0 1.163212)
(5.00625 -1.834995e-16 0 0.3998231 0 1.155677)
(4.825593 0 0 0.4089332 0 1.147505)
(4.653022 0 0 0.417574 0 1.138762)
(4.488211 0 0 0.4257224 0 1.129488)
(4.33072 2.730066e-16 0 0.4333522 0 1.1197)
(4.180001 5.606933e-31 0 0.4404336 0 1.109387)
(4.035408 0 0 0.4469334 0 1.098516)
(3.896196 0 0 0.4528149 0 1.087027)
(3.761527 0 0 0.4580383 0 1.074833)
(3.630463 0 0 0.4625604 0 1.061821)
(3.501968 0 0 0.4663356 0 1.047851)
(3.374917 -5.555933e-32 0 0.4693155 0 1.032754)
(3.248114 0 0 0.4714505 0 1.016341)
(3.12036 0 0 0.4726909 0 0.9984063)
(2.990561 -9.974457e-32 0 0.4729908 0 0.9787558)
(2.857924 0 0 0.4723139 0 0.957239)
(2.722168 0 0 0.4706416 0 0.9337966)
(2.583667 0 0 0.4679771 0 0.9084932)
(2.443442 -6.60614e-16 0 0.4643419 0 0.8815196)
(2.303029 -2.96337e-16 0 0.4597612 0 0.8531652)
(2.164323 0 0 0.4542451 0 0.8237817)
(2.029464 0 0 0.4477646 0 0.7937485)
(1.900757 -4.192972e-16 0 0.4402242 0 0.7634405)
(1.780627 0 0 0.431426 0 0.7331933)
(1.670959 0 0 0.4214669 0 0.7035511)
(1.572681 0 0 0.4110801 0 0.6754687)
(1.486924 0 0 0.4009563 0 0.6498736)
(1.41497 0 0 0.3917422 0 0.6276624)
(1.358227 0 0 0.3840355 0 0.6096981)
(1.318291 0 0 0.3783874 0 0.5968271)
(1.297048 -3.736685e-16 0 0.3753076 0 0.5899044)
)
;
    }
    wall
    {
        type            calculated;
        value           uniform (3.333333e-11 0 0 1e-10 0 6.666667e-11);
    }
    frontAndBack
    {
        type            empty;
    }
    middle
    {
        type            symmetryPlane;
        value           nonuniform List<symmTensor> 2((1.297048 0 0 0.5899044 0 0.5899044) (1.297048 0 0 0.5899044 0 0.5899044));
    }
}


// ************************************************************************* //
