/*--------------------------------*- C++ -*----------------------------------*\
| =========                 |                                                 |
| \\      /  F ield         | foam-extend: Open Source CFD                    |
|  \\    /   O peration     | Version:     4.0                                |
|   \\  /    A nd           | Web:         http://www.foam-extend.org         |
|    \\/     M anipulation  |                                                 |
\*---------------------------------------------------------------------------*/
FoamFile
{
    version     2.0;
    format      ascii;
    class       volSymmTensorField;
    location    "100";
    object      NLT;
}
// * * * * * * * * * * * * * * * * * * * * * * * * * * * * * * * * * * * * * //

dimensions      [0 0 -1 0 0 0 0];

internalField   nonuniform List<symmTensor> 
150
(
(0.0006868111 0 0 3.587015e-08 0 0)
(0.0006868108 0 0 3.587014e-08 0 0)
(0.03568347 0 0 8.53383e-06 0 0)
(0.03568345 0 0 8.533827e-06 0 0)
(0.2325691 0 0 0.0001298837 0 0)
(0.232569 0 0 0.0001298837 0 0)
(0.8272671 0 0 0.0008201486 0 0)
(0.8272668 0 0 0.0008201483 0 0)
(2.154 0 0 0.003269844 0 0)
(2.153999 0 0 0.003269843 0 0)
(4.61325 0 0 0.009775367 0 0)
(4.613248 0 0 0.009775364 0 0)
(8.614495 -6.030919e-19 0 0.02391592 0 0)
(8.614492 6.030917e-19 0 0.02391592 0 0)
(14.50335 0 0 0.05038758 0 0)
(14.50335 0 0 0.05038757 0 0)
(22.49822 0 0 0.094499 0 0)
(22.49821 4.313746e-18 0 0.09449899 0 0)
(32.66637 0 0 0.1615454 0 0)
(32.66637 0 0 0.1615454 0 0)
(44.95374 0 0 0.256385 0 0)
(44.95374 0 0 0.256385 0 0)
(59.25274 3.014318e-17 0 0.3834247 0 0)
(59.25275 -3.014319e-17 0 0.3834248 0 0)
(75.2611 0 0 0.5454242 0 0)
(75.26112 0 0 0.5454244 0 0)
(101.8052 -5.814966e-17 0 0.8172163 0 0)
(101.8052 5.814969e-17 0 0.8172168 0 0)
(134.0233 0 0 1.182104 0 0)
(134.0234 0 0 1.182105 0 0)
(170.922 1.061122e-16 0 1.647609 0 0)
(170.9221 0 0 1.647611 0 0)
(212.7812 0 0 2.233958 0 0)
(212.7814 0 0 2.23396 0 0)
(259.8989 -3.457345e-16 0 2.965517 0 0)
(259.8992 0 0 2.96552 0 0)
(312.5903 0 0 3.871396 0 0)
(312.5906 0 0 3.8714 0 0)
(371.1426 1.052164e-15 0 4.985514 0 0)
(371.143 -5.260824e-16 0 4.98552 0 0)
(435.7648 0 0 6.346329 0 0)
(435.7653 0 0 6.346336 0 0)
(506.531 -1.527403e-15 0 7.996118 0 0)
(506.5316 0 0 7.996128 0 0)
(583.3276 -1.813615e-15 0 9.979761 0 0)
(583.3282 0 0 9.979772 0 0)
(665.811 0 0 12.34305 0 0)
(665.8117 0 0 12.34306 0 0)
(753.3856 2.488758e-15 0 15.13061 0 0)
(753.3863 0 0 15.13063 0 0)
(845.2045 2.876793e-15 0 18.38366 0 0)
(845.2051 0 0 18.38368 0 0)
(940.1949 6.591563e-15 0 22.13764 0 0)
(940.1955 0 0 22.13765 0 0)
(1037.104 0 0 26.42001 0 0)
(1037.104 0 0 26.42003 0 0)
(1134.553 0 0 31.24834 0 0)
(1134.554 0 0 31.24836 0 0)
(1231.103 0 0 36.62855 0 0)
(1231.104 0 0 36.62857 0 0)
(1325.309 -1.037996e-14 0 42.55359 0 0)
(1325.31 1.037996e-14 0 42.55361 0 0)
(1415.769 -1.137173e-14 0 49.00235 0 0)
(1415.77 0 0 49.00237 0 0)
(1501.165 3.705062e-14 0 55.93888 0 0)
(1501.166 0 0 55.9389 0 0)
(1580.289 0 0 63.31193 0 0)
(1580.29 0 0 63.31195 0 0)
(1652.059 -2.839774e-14 0 71.05461 0 0)
(1652.059 0 0 71.05463 0 0)
(1715.524 0 0 79.0845 0 0)
(1715.525 0 0 79.08452 0 0)
(1769.87 -6.316202e-14 0 87.30387 0 0)
(1769.87 3.158102e-14 0 87.3039 0 0)
(1814.409 0 0 95.60039 0 0)
(1814.41 0 0 95.60042 0 0)
(1848.579 0 0 103.8481 0 0)
(1848.58 0 0 103.8481 0 0)
(1871.927 0 0 111.9087 0 0)
(1871.927 0 0 111.9087 0 0)
(1884.106 0 0 119.6332 0 0)
(1884.106 0 0 119.6333 0 0)
(1884.863 0 0 126.8646 0 0)
(1884.864 0 0 126.8646 0 0)
(1874.034 0 0 133.4396 0 0)
(1874.035 0 0 133.4396 0 0)
(1851.538 1.420766e-13 0 139.1927 0 0)
(1851.538 0 0 139.1927 0 0)
(1817.364 6.989728e-14 0 143.9572 0 0)
(1817.364 0 0 143.9572 0 0)
(1771.569 0 0 147.5689 0 0)
(1771.569 0 0 147.5689 0 0)
(1714.274 0 0 149.8685 0 0)
(1714.275 0 0 149.8686 0 0)
(1645.669 0 0 150.7056 0 0)
(1645.671 0 0 150.7058 0 0)
(1566.012 -1.192841e-13 0 149.9421 0 0)
(1566.013 0 0 149.9422 0 0)
(1475.632 -1.116016e-13 0 147.4555 0 0)
(1475.634 1.116017e-13 0 147.4556 0 0)
(1374.946 0 0 143.1433 0 0)
(1374.948 0 0 143.1434 0 0)
(1264.468 0 0 136.9271 0 0)
(1264.47 0 0 136.9274 0 0)
(1144.849 0 0 128.7587 0 0)
(1144.851 0 0 128.759 0 0)
(1016.948 0 0 118.6301 0 0)
(1016.951 0 0 118.6304 0 0)
(881.9947 0 0 106.595 0 0)
(881.9975 0 0 106.5954 0 0)
(741.9254 1.041741e-13 0 92.81474 0 0)
(741.9279 -1.041744e-13 0 92.81505 0 0)
(600.0309 0 0 77.65153 0 0)
(600.0331 0 0 77.65181 0 0)
(461.8934 0 0 61.81756 0 0)
(461.8948 0 0 61.81774 0 0)
(335.8912 4.493456e-14 0 46.49284 0 0)
(335.8921 -4.493468e-14 0 46.49296 0 0)
(231.4344 0 0 33.14365 0 0)
(231.4351 0 0 33.14373 0 0)
(154.1582 0 0 22.85638 0 0)
(154.1586 0 0 22.85643 0 0)
(102.3298 0 0 15.72026 0 0)
(102.33 0 0 15.72029 0 0)
(69.19492 3.491022e-14 0 11.0229 0 0)
(69.19505 0 0 11.02292 0 0)
(47.88956 0 0 7.915776 0 0)
(47.88963 1.192535e-14 0 7.915787 0 0)
(33.72142 0 0 5.784747 0 0)
(33.72146 0 0 5.784755 0 0)
(23.9502 0 0 4.26211 0 0)
(23.95021 0 0 4.262113 0 0)
(17.01796 0 0 3.137212 0 0)
(17.01797 8.139599e-15 0 3.137215 0 0)
(11.98542 0 0 2.282344 0 0)
(11.98543 0 0 2.282346 0 0)
(8.298541 0 0 1.626204 0 0)
(8.29855 0 0 1.626206 0 0)
(5.541208 0 0 1.113572 0 0)
(5.54121 0 0 1.113572 0 0)
(3.587139 0 0 0.7367821 0 0)
(3.587134 0 0 0.7367811 0 0)
(1.957779 0 0 0.4095624 0 0)
(1.957772 0 0 0.4095608 0 0)
(1.338976 0 0 0.2842218 0 0)
(1.338974 0 0 0.2842215 0 0)
(-0.03997873 -0 -0 -0.008574511 -0 -0)
(-0.03997736 -0 -0 -0.008574216 -0 -0)
(0.2719369 2.04244e-16 0 0.05864842 0 0)
(0.2719363 0 0 0.05864827 0 0)
)
;

boundaryField
{
    leftandright
    {
        type            cyclic;
        value           nonuniform List<symmTensor> 
150
(
(0.0006868109 0 0 3.587015e-08 0 0)
(0.03568346 0 0 8.533829e-06 0 0)
(0.232569 0 0 0.0001298837 0 0)
(0.827267 0 0 0.0008201484 0 0)
(2.154 0 0 0.003269844 0 0)
(4.613249 0 0 0.009775366 0 0)
(8.614494 3.316348e-34 0 0.02391592 0 0)
(14.50335 0 0 0.05038757 0 0)
(22.49821 2.156873e-18 0 0.094499 0 0)
(32.66637 0 0 0.1615454 0 0)
(44.95374 0 0 0.256385 0 0)
(59.25275 2.363037e-33 0 0.3834248 0 0)
(75.26111 0 0 0.5454243 0 0)
(101.8052 -1.510946e-32 0 0.8172166 0 0)
(134.0234 0 0 1.182105 0 0)
(170.922 5.305613e-17 0 1.64761 0 0)
(212.7813 0 0 2.233959 0 0)
(259.8991 -1.728673e-16 0 2.965519 0 0)
(312.5904 0 0 3.871398 0 0)
(371.1428 2.630411e-16 0 4.985517 0 0)
(435.7651 0 0 6.346333 0 0)
(506.5313 -7.63702e-16 0 7.996123 0 0)
(583.3279 -9.068081e-16 0 9.979767 0 0)
(665.8114 0 0 12.34305 0 0)
(753.386 1.244379e-15 0 15.13062 0 0)
(845.2048 1.438397e-15 0 18.38367 0 0)
(940.1952 3.295782e-15 0 22.13764 0 0)
(1037.104 0 0 26.42002 0 0)
(1134.553 0 0 31.24835 0 0)
(1231.104 0 0 36.62856 0 0)
(1325.309 0 0 42.5536 0 0)
(1415.769 -5.685869e-15 0 49.00236 0 0)
(1501.165 1.852531e-14 0 55.93889 0 0)
(1580.29 0 0 63.31194 0 0)
(1652.059 -1.419887e-14 0 71.05462 0 0)
(1715.524 0 0 79.08451 0 0)
(1769.87 -1.579051e-14 0 87.30388 0 0)
(1814.41 0 0 95.60041 0 0)
(1848.579 0 0 103.8481 0 0)
(1871.927 0 0 111.9087 0 0)
(1884.106 0 0 119.6333 0 0)
(1884.864 0 0 126.8646 0 0)
(1874.034 0 0 133.4396 0 0)
(1851.538 7.103831e-14 0 139.1927 0 0)
(1817.364 3.494864e-14 0 143.9572 0 0)
(1771.569 0 0 147.5689 0 0)
(1714.275 0 0 149.8685 0 0)
(1645.67 0 0 150.7057 0 0)
(1566.012 -5.964208e-14 0 149.9421 0 0)
(1475.633 -1.23592e-28 0 147.4555 0 0)
(1374.947 0 0 143.1433 0 0)
(1264.469 0 0 136.9272 0 0)
(1144.85 0 0 128.7588 0 0)
(1016.949 0 0 118.6303 0 0)
(881.9961 0 0 106.5952 0 0)
(741.9266 9.152255e-30 0 92.81489 0 0)
(600.032 0 0 77.65167 0 0)
(461.8941 0 0 61.81765 0 0)
(335.8917 9.169108e-30 0 46.4929 0 0)
(231.4348 0 0 33.14369 0 0)
(154.1584 0 0 22.8564 0 0)
(102.3299 0 0 15.72028 0 0)
(69.19499 1.745513e-14 0 11.02291 0 0)
(47.8896 5.962672e-15 0 7.915782 0 0)
(33.72144 0 0 5.784751 0 0)
(23.95021 0 0 4.262112 0 0)
(17.01796 4.069798e-15 0 3.137214 0 0)
(11.98542 0 0 2.282345 0 0)
(8.298546 0 0 1.626205 0 0)
(5.541209 0 0 1.113572 0 0)
(3.587137 0 0 0.7367816 0 0)
(1.957775 0 0 0.4095616 0 0)
(1.338975 0 0 0.2842217 0 0)
(-0.03997805 -0 -0 -0.008574363 -0 -0)
(0.2719366 1.021219e-16 0 0.05864835 0 0)
(0.0006868109 0 0 3.587015e-08 0 0)
(0.03568346 0 0 8.533829e-06 0 0)
(0.232569 0 0 0.0001298837 0 0)
(0.827267 0 0 0.0008201484 0 0)
(2.154 0 0 0.003269844 0 0)
(4.613249 0 0 0.009775366 0 0)
(8.614494 3.684831e-34 0 0.02391592 0 0)
(14.50335 0 0 0.05038757 0 0)
(22.49821 2.156873e-18 0 0.094499 0 0)
(32.66637 0 0 0.1615454 0 0)
(44.95374 0 0 0.256385 0 0)
(59.25275 2.363037e-33 0 0.3834248 0 0)
(75.26111 0 0 0.5454243 0 0)
(101.8052 -1.510946e-32 0 0.8172166 0 0)
(134.0234 0 0 1.182105 0 0)
(170.922 5.305613e-17 0 1.64761 0 0)
(212.7813 0 0 2.233959 0 0)
(259.8991 -1.728673e-16 0 2.965519 0 0)
(312.5904 0 0 3.871398 0 0)
(371.1428 2.630411e-16 0 4.985517 0 0)
(435.7651 0 0 6.346333 0 0)
(506.5313 -7.63702e-16 0 7.996123 0 0)
(583.3279 -9.068081e-16 0 9.979767 0 0)
(665.8114 0 0 12.34305 0 0)
(753.386 1.244379e-15 0 15.13062 0 0)
(845.2048 1.438397e-15 0 18.38367 0 0)
(940.1952 3.295782e-15 0 22.13764 0 0)
(1037.104 0 0 26.42002 0 0)
(1134.553 0 0 31.24835 0 0)
(1231.104 0 0 36.62856 0 0)
(1325.309 0 0 42.5536 0 0)
(1415.769 -5.685869e-15 0 49.00236 0 0)
(1501.165 1.852531e-14 0 55.93889 0 0)
(1580.29 0 0 63.31194 0 0)
(1652.059 -1.419887e-14 0 71.05462 0 0)
(1715.524 0 0 79.08451 0 0)
(1769.87 -1.579051e-14 0 87.30388 0 0)
(1814.41 0 0 95.60041 0 0)
(1848.579 0 0 103.8481 0 0)
(1871.927 0 0 111.9087 0 0)
(1884.106 0 0 119.6333 0 0)
(1884.864 0 0 126.8646 0 0)
(1874.034 0 0 133.4396 0 0)
(1851.538 7.103831e-14 0 139.1927 0 0)
(1817.364 3.494864e-14 0 143.9572 0 0)
(1771.569 0 0 147.5689 0 0)
(1714.275 0 0 149.8685 0 0)
(1645.67 0 0 150.7057 0 0)
(1566.012 -5.964208e-14 0 149.9421 0 0)
(1475.633 -1.23592e-28 0 147.4555 0 0)
(1374.947 0 0 143.1433 0 0)
(1264.469 0 0 136.9272 0 0)
(1144.85 0 0 128.7588 0 0)
(1016.949 0 0 118.6303 0 0)
(881.9961 0 0 106.5952 0 0)
(741.9266 9.152255e-30 0 92.81489 0 0)
(600.032 0 0 77.65167 0 0)
(461.8941 0 0 61.81765 0 0)
(335.8917 9.169108e-30 0 46.4929 0 0)
(231.4348 0 0 33.14369 0 0)
(154.1584 0 0 22.8564 0 0)
(102.3299 0 0 15.72028 0 0)
(69.19499 1.745513e-14 0 11.02291 0 0)
(47.8896 5.962672e-15 0 7.915782 0 0)
(33.72144 0 0 5.784751 0 0)
(23.95021 0 0 4.262112 0 0)
(17.01796 4.069798e-15 0 3.137214 0 0)
(11.98542 0 0 2.282345 0 0)
(8.298546 0 0 1.626205 0 0)
(5.541209 0 0 1.113572 0 0)
(3.587137 0 0 0.7367816 0 0)
(1.957775 0 0 0.4095616 0 0)
(1.338975 0 0 0.2842217 0 0)
(-0.03997805 -0 -0 -0.008574363 -0 -0)
(0.2719366 1.021219e-16 0 0.05864835 0 0)
)
;
    }
    wall
    {
        type            calculated;
        value           nonuniform List<symmTensor> 2((3.428156e-07 0 0 2.228301e-07 0 0) (3.428154e-07 0 0 2.2283e-07 0 0));
    }
    frontAndBack
    {
        type            empty;
    }
    middle
    {
        type            symmetryPlane;
        value           nonuniform List<symmTensor> 2((0.2719369 0 0 0.05864842 0 0) (0.2719363 0 0 0.05864827 0 0));
    }
}


// ************************************************************************* //
