/*--------------------------------*- C++ -*----------------------------------*\
| =========                 |                                                 |
| \\      /  F ield         | foam-extend: Open Source CFD                    |
|  \\    /   O peration     | Version:     4.0                                |
|   \\  /    A nd           | Web:         http://www.foam-extend.org         |
|    \\/     M anipulation  |                                                 |
\*---------------------------------------------------------------------------*/
FoamFile
{
    version     2.0;
    format      ascii;
    class       volSymmTensorField;
    location    "100";
    object      NLTPlus;
}
// * * * * * * * * * * * * * * * * * * * * * * * * * * * * * * * * * * * * * //

dimensions      [0 2 -2 0 0 0 0];

internalField   nonuniform List<symmTensor> 
150
(
(2.28937e-06 0 0 1.195672e-10 0 0)
(2.289369e-06 0 0 1.195671e-10 0 0)
(0.0001189449 0 0 2.84461e-08 0 0)
(0.0001189448 0 0 2.844609e-08 0 0)
(0.0007752303 0 0 4.329458e-07 0 0)
(0.0007752299 0 0 4.329457e-07 0 0)
(0.002757557 0 0 2.733829e-06 0 0)
(0.002757556 0 0 2.733828e-06 0 0)
(0.007180001 0 0 1.089948e-05 0 0)
(0.007179998 0 0 1.089948e-05 0 0)
(0.0153775 0 0 3.258456e-05 0 0)
(0.01537749 0 0 3.258455e-05 0 0)
(0.02871498 -2.010306e-21 0 7.971974e-05 0 0)
(0.02871497 2.010306e-21 0 7.971972e-05 0 0)
(0.04834452 0 0 0.0001679586 0 0)
(0.0483445 0 0 0.0001679586 0 0)
(0.07499406 0 0 0.0003149967 0 0)
(0.07499404 1.437915e-20 0 0.0003149966 0 0)
(0.1088879 0 0 0.0005384847 0 0)
(0.1088879 0 0 0.0005384846 0 0)
(0.1498458 0 0 0.0008546166 0 0)
(0.1498458 0 0 0.0008546167 0 0)
(0.1975091 1.004773e-19 0 0.001278082 0 0)
(0.1975092 -1.004773e-19 0 0.001278083 0 0)
(0.2508703 0 0 0.001818081 0 0)
(0.2508704 0 0 0.001818081 0 0)
(0.3393506 -1.938322e-19 0 0.002724054 0 0)
(0.3393508 1.938323e-19 0 0.002724056 0 0)
(0.4467445 0 0 0.003940347 0 0)
(0.4467448 0 0 0.00394035 0 0)
(0.5697398 3.537074e-19 0 0.00549203 0 0)
(0.5697403 0 0 0.005492035 0 0)
(0.7092705 0 0 0.007446525 0 0)
(0.7092712 0 0 0.007446534 0 0)
(0.8663298 -1.152448e-18 0 0.009885057 0 0)
(0.8663308 0 0 0.009885068 0 0)
(1.041968 0 0 0.01290465 0 0)
(1.041969 0 0 0.01290467 0 0)
(1.237142 3.507212e-18 0 0.01661838 0 0)
(1.237143 -1.753608e-18 0 0.0166184 0 0)
(1.452549 0 0 0.02115443 0 0)
(1.452551 0 0 0.02115445 0 0)
(1.688437 -5.091343e-18 0 0.02665373 0 0)
(1.688439 0 0 0.02665376 0 0)
(1.944425 -6.045384e-18 0 0.03326587 0 0)
(1.944427 0 0 0.03326591 0 0)
(2.21937 0 0 0.04114349 0 0)
(2.219372 0 0 0.04114354 0 0)
(2.511285 8.295859e-18 0 0.05043538 0 0)
(2.511288 0 0 0.05043543 0 0)
(2.817348 9.589311e-18 0 0.06127888 0 0)
(2.81735 0 0 0.06127893 0 0)
(3.133983 2.197188e-17 0 0.07379212 0 0)
(3.133985 0 0 0.07379217 0 0)
(3.457012 0 0 0.08806671 0 0)
(3.457014 0 0 0.08806677 0 0)
(3.781844 0 0 0.1041611 0 0)
(3.781846 0 0 0.1041612 0 0)
(4.103678 0 0 0.1220952 0 0)
(4.103679 0 0 0.1220952 0 0)
(4.417696 -3.459985e-17 0 0.1418453 0 0)
(4.417698 3.459987e-17 0 0.1418454 0 0)
(4.71923 -3.790578e-17 0 0.1633412 0 0)
(4.719232 0 0 0.1633412 0 0)
(5.003884 1.235021e-16 0 0.1864629 0 0)
(5.003885 0 0 0.186463 0 0)
(5.267631 0 0 0.2110398 0 0)
(5.267633 0 0 0.2110398 0 0)
(5.506862 -9.465912e-17 0 0.2368487 0 0)
(5.506864 0 0 0.2368488 0 0)
(5.718414 0 0 0.263615 0 0)
(5.718416 0 0 0.2636151 0 0)
(5.899566 -2.105401e-16 0 0.2910129 0 0)
(5.899568 1.052701e-16 0 0.291013 0 0)
(6.048031 0 0 0.318668 0 0)
(6.048033 0 0 0.3186681 0 0)
(6.16193 0 0 0.3461603 0 0)
(6.161932 0 0 0.3461604 0 0)
(6.239757 0 0 0.3730289 0 0)
(6.239758 0 0 0.373029 0 0)
(6.280354 0 0 0.3987775 0 0)
(6.280355 0 0 0.3987776 0 0)
(6.282878 0 0 0.4228819 0 0)
(6.282879 0 0 0.4228819 0 0)
(6.246781 0 0 0.4447987 0 0)
(6.246782 0 0 0.4447988 0 0)
(6.171793 4.735888e-16 0 0.4639755 0 0)
(6.171793 0 0 0.4639755 0 0)
(6.05788 2.329909e-16 0 0.4798574 0 0)
(6.05788 0 0 0.4798574 0 0)
(5.905229 0 0 0.4918963 0 0)
(5.90523 0 0 0.4918964 0 0)
(5.714248 0 0 0.4995617 0 0)
(5.71425 0 0 0.4995619 0 0)
(5.485564 0 0 0.5023522 0 0)
(5.485568 0 0 0.5023525 0 0)
(5.220039 -3.976137e-16 0 0.499807 0 0)
(5.220044 0 0 0.4998074 0 0)
(4.918775 -3.720053e-16 0 0.4915182 0 0)
(4.91878 3.720057e-16 0 0.4915187 0 0)
(4.583154 0 0 0.4771442 0 0)
(4.583159 0 0 0.4771448 0 0)
(4.214893 0 0 0.4564237 0 0)
(4.214901 0 0 0.4564245 0 0)
(3.816162 0 0 0.4291956 0 0)
(3.816171 0 0 0.4291966 0 0)
(3.389826 0 0 0.3954337 0 0)
(3.389835 0 0 0.3954348 0 0)
(2.939982 0 0 0.3553168 0 0)
(2.939992 0 0 0.3553179 0 0)
(2.473085 3.47247e-16 0 0.3093825 0 0)
(2.473093 -3.472481e-16 0 0.3093835 0 0)
(2.000103 0 0 0.2588384 0 0)
(2.00011 0 0 0.2588394 0 0)
(1.539645 0 0 0.2060585 0 0)
(1.539649 0 0 0.2060591 0 0)
(1.119637 1.497819e-16 0 0.1549761 0 0)
(1.11964 -1.497823e-16 0 0.1549765 0 0)
(0.7714481 0 0 0.1104788 0 0)
(0.7714502 0 0 0.1104791 0 0)
(0.5138608 0 0 0.07618793 0 0)
(0.5138619 0 0 0.07618809 0 0)
(0.3410992 0 0 0.05240086 0 0)
(0.3410999 0 0 0.05240097 0 0)
(0.2306497 1.163674e-16 0 0.03674301 0 0)
(0.2306502 0 0 0.03674308 0 0)
(0.1596319 0 0 0.02638592 0 0)
(0.1596321 3.975118e-17 0 0.02638596 0 0)
(0.1124047 0 0 0.01928249 0 0)
(0.1124049 0 0 0.01928252 0 0)
(0.07983399 0 0 0.01420703 0 0)
(0.07983405 0 0 0.01420704 0 0)
(0.05672652 0 0 0.01045737 0 0)
(0.05672657 2.7132e-17 0 0.01045738 0 0)
(0.03995139 0 0 0.007607815 0 0)
(0.03995143 0 0 0.007607821 0 0)
(0.0276618 0 0 0.00542068 0 0)
(0.02766183 0 0 0.005420686 0 0)
(0.01847069 0 0 0.003711907 0 0)
(0.0184707 0 0 0.003711908 0 0)
(0.01195713 0 0 0.00245594 0 0)
(0.01195711 0 0 0.002455937 0 0)
(0.006525931 0 0 0.001365208 0 0)
(0.006525905 0 0 0.001365203 0 0)
(0.004463252 0 0 0.0009474061 0 0)
(0.004463247 0 0 0.0009474049 0 0)
(-0.0001332624 -0 -0 -2.85817e-05 -0 -0)
(-0.0001332579 -0 -0 -2.858072e-05 -0 -0)
(0.0009064565 6.808135e-19 0 0.0001954947 0 0)
(0.0009064542 0 0 0.0001954942 0 0)
)
;

boundaryField
{
    leftandright
    {
        type            cyclic;
        value           nonuniform List<symmTensor> 
150
(
(2.28937e-06 0 0 1.195672e-10 0 0)
(0.0001189449 0 0 2.84461e-08 0 0)
(0.0007752301 0 0 4.329457e-07 0 0)
(0.002757557 0 0 2.733828e-06 0 0)
(0.007179999 0 0 1.089948e-05 0 0)
(0.0153775 0 0 3.258455e-05 0 0)
(0.02871498 1.105449e-36 0 7.971973e-05 0 0)
(0.04834451 0 0 0.0001679586 0 0)
(0.07499405 7.189578e-21 0 0.0003149967 0 0)
(0.1088879 0 0 0.0005384846 0 0)
(0.1498458 0 0 0.0008546166 0 0)
(0.1975092 7.876792e-36 0 0.001278083 0 0)
(0.2508704 0 0 0.001818081 0 0)
(0.3393507 -5.036486e-35 0 0.002724055 0 0)
(0.4467446 0 0 0.003940348 0 0)
(0.5697401 1.768538e-19 0 0.005492033 0 0)
(0.7092709 0 0 0.00744653 0 0)
(0.8663303 -5.762245e-19 0 0.009885062 0 0)
(1.041968 0 0 0.01290466 0 0)
(1.237143 8.768035e-19 0 0.01661839 0 0)
(1.45255 0 0 0.02115444 0 0)
(1.688438 -2.545673e-18 0 0.02665374 0 0)
(1.944426 -3.022694e-18 0 0.03326589 0 0)
(2.219371 0 0 0.04114351 0 0)
(2.511287 4.147932e-18 0 0.05043541 0 0)
(2.817349 4.794657e-18 0 0.0612789 0 0)
(3.133984 1.098594e-17 0 0.07379215 0 0)
(3.457013 0 0 0.08806674 0 0)
(3.781845 0 0 0.1041612 0 0)
(4.103679 0 0 0.1220952 0 0)
(4.417697 0 0 0.1418453 0 0)
(4.719231 -1.89529e-17 0 0.1633412 0 0)
(5.003885 6.175103e-17 0 0.186463 0 0)
(5.267632 0 0 0.2110398 0 0)
(5.506863 -4.732957e-17 0 0.2368487 0 0)
(5.718415 0 0 0.263615 0 0)
(5.899567 -5.263503e-17 0 0.2910129 0 0)
(6.048032 0 0 0.318668 0 0)
(6.161931 0 0 0.3461604 0 0)
(6.239758 0 0 0.373029 0 0)
(6.280354 0 0 0.3987775 0 0)
(6.282879 0 0 0.4228819 0 0)
(6.246781 0 0 0.4447987 0 0)
(6.171793 2.367944e-16 0 0.4639755 0 0)
(6.05788 1.164955e-16 0 0.4798574 0 0)
(5.905229 0 0 0.4918963 0 0)
(5.714249 0 0 0.4995618 0 0)
(5.485566 0 0 0.5023523 0 0)
(5.220041 -1.988069e-16 0 0.4998072 0 0)
(4.918777 -4.119734e-31 0 0.4915185 0 0)
(4.583157 0 0 0.4771445 0 0)
(4.214897 0 0 0.4564241 0 0)
(3.816166 0 0 0.4291961 0 0)
(3.389831 0 0 0.3954342 0 0)
(2.939987 0 0 0.3553173 0 0)
(2.473089 3.050752e-32 0 0.309383 0 0)
(2.000107 0 0 0.2588389 0 0)
(1.539647 0 0 0.2060588 0 0)
(1.119639 3.056369e-32 0 0.1549763 0 0)
(0.7714492 0 0 0.110479 0 0)
(0.5138614 0 0 0.07618801 0 0)
(0.3410995 0 0 0.05240092 0 0)
(0.23065 5.818376e-17 0 0.03674305 0 0)
(0.159632 1.987557e-17 0 0.02638594 0 0)
(0.1124048 0 0 0.0192825 0 0)
(0.07983402 0 0 0.01420704 0 0)
(0.05672655 1.356599e-17 0 0.01045738 0 0)
(0.03995141 0 0 0.007607818 0 0)
(0.02766182 0 0 0.005420683 0 0)
(0.0184707 0 0 0.003711908 0 0)
(0.01195712 0 0 0.002455939 0 0)
(0.006525918 0 0 0.001365205 0 0)
(0.00446325 0 0 0.0009474055 0 0)
(-0.0001332602 -0 -0 -2.858121e-05 -0 -0)
(0.0009064553 3.404063e-19 0 0.0001954945 0 0)
(2.28937e-06 0 0 1.195672e-10 0 0)
(0.0001189449 0 0 2.84461e-08 0 0)
(0.0007752301 0 0 4.329457e-07 0 0)
(0.002757557 0 0 2.733828e-06 0 0)
(0.007179999 0 0 1.089948e-05 0 0)
(0.0153775 0 0 3.258455e-05 0 0)
(0.02871498 1.228277e-36 0 7.971973e-05 0 0)
(0.04834451 0 0 0.0001679586 0 0)
(0.07499405 7.189578e-21 0 0.0003149967 0 0)
(0.1088879 0 0 0.0005384846 0 0)
(0.1498458 0 0 0.0008546166 0 0)
(0.1975092 7.876792e-36 0 0.001278083 0 0)
(0.2508704 0 0 0.001818081 0 0)
(0.3393507 -5.036486e-35 0 0.002724055 0 0)
(0.4467446 0 0 0.003940348 0 0)
(0.5697401 1.768538e-19 0 0.005492033 0 0)
(0.7092709 0 0 0.00744653 0 0)
(0.8663303 -5.762245e-19 0 0.009885062 0 0)
(1.041968 0 0 0.01290466 0 0)
(1.237143 8.768035e-19 0 0.01661839 0 0)
(1.45255 0 0 0.02115444 0 0)
(1.688438 -2.545673e-18 0 0.02665374 0 0)
(1.944426 -3.022694e-18 0 0.03326589 0 0)
(2.219371 0 0 0.04114351 0 0)
(2.511287 4.147932e-18 0 0.05043541 0 0)
(2.817349 4.794657e-18 0 0.0612789 0 0)
(3.133984 1.098594e-17 0 0.07379215 0 0)
(3.457013 0 0 0.08806674 0 0)
(3.781845 0 0 0.1041612 0 0)
(4.103679 0 0 0.1220952 0 0)
(4.417697 0 0 0.1418453 0 0)
(4.719231 -1.89529e-17 0 0.1633412 0 0)
(5.003885 6.175103e-17 0 0.186463 0 0)
(5.267632 0 0 0.2110398 0 0)
(5.506863 -4.732957e-17 0 0.2368487 0 0)
(5.718415 0 0 0.263615 0 0)
(5.899567 -5.263503e-17 0 0.2910129 0 0)
(6.048032 0 0 0.318668 0 0)
(6.161931 0 0 0.3461604 0 0)
(6.239758 0 0 0.373029 0 0)
(6.280354 0 0 0.3987775 0 0)
(6.282879 0 0 0.4228819 0 0)
(6.246781 0 0 0.4447987 0 0)
(6.171793 2.367944e-16 0 0.4639755 0 0)
(6.05788 1.164955e-16 0 0.4798574 0 0)
(5.905229 0 0 0.4918963 0 0)
(5.714249 0 0 0.4995618 0 0)
(5.485566 0 0 0.5023523 0 0)
(5.220041 -1.988069e-16 0 0.4998072 0 0)
(4.918777 -4.119734e-31 0 0.4915185 0 0)
(4.583157 0 0 0.4771445 0 0)
(4.214897 0 0 0.4564241 0 0)
(3.816166 0 0 0.4291961 0 0)
(3.389831 0 0 0.3954342 0 0)
(2.939987 0 0 0.3553173 0 0)
(2.473089 3.050752e-32 0 0.309383 0 0)
(2.000107 0 0 0.2588389 0 0)
(1.539647 0 0 0.2060588 0 0)
(1.119639 3.056369e-32 0 0.1549763 0 0)
(0.7714492 0 0 0.110479 0 0)
(0.5138614 0 0 0.07618801 0 0)
(0.3410995 0 0 0.05240092 0 0)
(0.23065 5.818376e-17 0 0.03674305 0 0)
(0.159632 1.987557e-17 0 0.02638594 0 0)
(0.1124048 0 0 0.0192825 0 0)
(0.07983402 0 0 0.01420704 0 0)
(0.05672655 1.356599e-17 0 0.01045738 0 0)
(0.03995141 0 0 0.007607818 0 0)
(0.02766182 0 0 0.005420683 0 0)
(0.0184707 0 0 0.003711908 0 0)
(0.01195712 0 0 0.002455939 0 0)
(0.006525918 0 0 0.001365205 0 0)
(0.00446325 0 0 0.0009474055 0 0)
(-0.0001332602 -0 -0 -2.858121e-05 -0 -0)
(0.0009064553 3.404063e-19 0 0.0001954945 0 0)
)
;
    }
    wall
    {
        type            calculated;
        value           nonuniform List<symmTensor> 2((1.142719e-09 0 0 7.427671e-10 0 0) (1.142718e-09 0 0 7.427666e-10 0 0));
    }
    frontAndBack
    {
        type            empty;
    }
    middle
    {
        type            symmetryPlane;
        value           nonuniform List<symmTensor> 2((0.0009064565 0 0 0.0001954947 0 0) (0.0009064542 0 0 0.0001954942 0 0));
    }
}


// ************************************************************************* //
