/*--------------------------------*- C++ -*----------------------------------*\
| =========                 |                                                 |
| \\      /  F ield         | foam-extend: Open Source CFD                    |
|  \\    /   O peration     | Version:     4.0                                |
|   \\  /    A nd           | Web:         http://www.foam-extend.org         |
|    \\/     M anipulation  |                                                 |
\*---------------------------------------------------------------------------*/
FoamFile
{
    version     2.0;
    format      ascii;
    class       volScalarField;
    location    "100";
    object      nut;
}
// * * * * * * * * * * * * * * * * * * * * * * * * * * * * * * * * * * * * * //

dimensions      [0 2 -1 0 0 0 0];

internalField   nonuniform List<scalar> 
150
(
2.489367e-09
2.489367e-09
1.295134e-07
1.295134e-07
8.453597e-07
8.453598e-07
3.012353e-06
3.012354e-06
7.862087e-06
7.862088e-06
1.689447e-05
1.689447e-05
3.169243e-05
3.169243e-05
5.367615e-05
5.367616e-05
8.386656e-05
8.386657e-05
0.0001227482
0.0001227482
0.0001702851
0.0001702851
0.0002260664
0.0002260664
0.0002894993
0.0002894994
0.0003965295
0.0003965296
0.0005302411
0.0005302412
0.0006869436
0.0006869437
0.0008681488
0.000868149
0.001075688
0.001075688
0.001311659
0.001311659
0.001578381
0.001578381
0.001878371
0.001878371
0.002214332
0.002214332
0.002589147
0.002589148
0.003005885
0.003005885
0.003467795
0.003467795
0.003978313
0.003978313
0.004541056
0.004541057
0.005159816
0.005159816
0.005838546
0.005838546
0.006581349
0.006581349
0.007392451
0.007392452
0.008276177
0.008276178
0.00923691
0.00923691
0.01027904
0.01027904
0.01140693
0.01140693
0.01262481
0.01262481
0.01393672
0.01393672
0.01534641
0.01534641
0.01685724
0.01685724
0.01847205
0.01847205
0.02019306
0.02019306
0.02202174
0.02202174
0.02395871
0.02395871
0.02600363
0.02600362
0.02815495
0.02815495
0.03040985
0.03040985
0.03276402
0.03276402
0.03521161
0.03521161
0.03774527
0.03774527
0.04035625
0.04035625
0.0430346
0.0430346
0.0457696
0.0457696
0.04855036
0.04855036
0.05136659
0.05136658
0.0542097
0.0542097
0.05707417
0.05707416
0.059959
0.05995899
0.06286926
0.06286925
0.06581698
0.06581697
0.06882089
0.06882088
0.07190454
0.07190453
0.07509326
0.07509326
0.07841091
0.0784109
0.0818762
0.08187619
0.08549755
0.08549754
0.08926447
0.08926447
0.093134
0.093134
0.09701029
0.09701029
0.1008175
0.1008175
0.1045828
0.1045828
0.1082776
0.1082776
0.1117936
0.1117936
0.114925
0.114925
0.1173689
0.1173689
0.1187626
0.1187626
)
;

boundaryField
{
    leftandright
    {
        type            cyclic;
        value           nonuniform List<scalar> 
150
(
2.489367e-09
1.295134e-07
8.453598e-07
3.012354e-06
7.862087e-06
1.689447e-05
3.169243e-05
5.367616e-05
8.386657e-05
0.0001227482
0.0001702851
0.0002260664
0.0002894993
0.0003965296
0.0005302411
0.0006869436
0.0008681489
0.001075688
0.001311659
0.001578381
0.001878371
0.002214332
0.002589148
0.003005885
0.003467795
0.003978313
0.004541056
0.005159816
0.005838546
0.006581349
0.007392452
0.008276178
0.00923691
0.01027904
0.01140693
0.01262481
0.01393672
0.01534641
0.01685724
0.01847205
0.02019306
0.02202174
0.02395871
0.02600362
0.02815495
0.03040985
0.03276402
0.03521161
0.03774527
0.04035625
0.0430346
0.0457696
0.04855036
0.05136659
0.0542097
0.05707416
0.059959
0.06286925
0.06581697
0.06882089
0.07190454
0.07509326
0.0784109
0.0818762
0.08549754
0.08926447
0.093134
0.09701029
0.1008175
0.1045828
0.1082776
0.1117936
0.114925
0.1173689
0.1187626
2.489367e-09
1.295134e-07
8.453598e-07
3.012354e-06
7.862087e-06
1.689447e-05
3.169243e-05
5.367616e-05
8.386657e-05
0.0001227482
0.0001702851
0.0002260664
0.0002894993
0.0003965296
0.0005302411
0.0006869436
0.0008681489
0.001075688
0.001311659
0.001578381
0.001878371
0.002214332
0.002589148
0.003005885
0.003467795
0.003978313
0.004541056
0.005159816
0.005838546
0.006581349
0.007392452
0.008276178
0.00923691
0.01027904
0.01140693
0.01262481
0.01393672
0.01534641
0.01685724
0.01847205
0.02019306
0.02202174
0.02395871
0.02600362
0.02815495
0.03040985
0.03276402
0.03521161
0.03774527
0.04035625
0.0430346
0.0457696
0.04855036
0.05136659
0.0542097
0.05707416
0.059959
0.06286925
0.06581697
0.06882089
0.07190454
0.07509326
0.0784109
0.0818762
0.08549754
0.08926447
0.093134
0.09701029
0.1008175
0.1045828
0.1082776
0.1117936
0.114925
0.1173689
0.1187626
)
;
    }
    wall
    {
        type            nutLowReWallFunction;
        Cmu             0.09;
        kappa           0.41;
        E               9.8;
        value           nonuniform List<scalar> 2(1.241713e-12 1.241713e-12);
    }
    frontAndBack
    {
        type            empty;
    }
    middle
    {
        type            symmetryPlane;
        value           nonuniform List<scalar> 2(0.1187626 0.1187626);
    }
}


// ************************************************************************* //
