/*--------------------------------*- C++ -*----------------------------------*\
| =========                 |                                                 |
| \\      /  F ield         | foam-extend: Open Source CFD                    |
|  \\    /   O peration     | Version:     4.0                                |
|   \\  /    A nd           | Web:         http://www.foam-extend.org         |
|    \\/     M anipulation  |                                                 |
\*---------------------------------------------------------------------------*/
FoamFile
{
    version     2.0;
    format      ascii;
    class       volScalarField;
    location    "100";
    object      p;
}
// * * * * * * * * * * * * * * * * * * * * * * * * * * * * * * * * * * * * * //

dimensions      [0 2 -2 0 0 0 0];

internalField   nonuniform List<scalar> 
150
(
-4.488548e-09
-0.05000002
-1.12016e-05
-0.05001121
-6.20622e-05
-0.05006207
-0.0002088084
-0.05020882
-0.0005253557
-0.05052537
-0.001099589
-0.0510996
-0.002028579
-0.05202859
-0.003413369
-0.05341338
-0.005354054
-0.05535407
-0.007945941
-0.05794595
-0.0112775
-0.06127752
-0.01542902
-0.06542903
-0.02046261
-0.07046262
-0.02640727
-0.07640728
-0.03326364
-0.08326365
-0.04102019
-0.0910202
-0.04965451
-0.09965452
-0.05912658
-0.1091266
-0.06937712
-0.1193771
-0.08032922
-0.1303292
-0.09189133
-0.1418913
-0.1039608
-0.1539608
-0.1164283
-0.1664283
-0.1291815
-0.1791815
-0.1421097
-0.1921097
-0.1551074
-0.2051074
-0.1680768
-0.2180768
-0.1809306
-0.2309306
-0.1935932
-0.2435932
-0.2060014
-0.2560015
-0.2181051
-0.2681051
-0.2298664
-0.2798664
-0.2412595
-0.2912595
-0.2522696
-0.3022696
-0.2628921
-0.3128921
-0.2731312
-0.3231312
-0.2829995
-0.3329995
-0.2925162
-0.3425162
-0.3017064
-0.3517064
-0.3106004
-0.3606004
-0.3192325
-0.3692325
-0.32764
-0.37764
-0.3358628
-0.3858628
-0.3439419
-0.3939419
-0.3519176
-0.4019176
-0.3598275
-0.4098275
-0.3677049
-0.4177049
-0.3755769
-0.4255769
-0.3834635
-0.4334635
-0.3913757
-0.4413757
-0.3993146
-0.4493146
-0.4072698
-0.4572698
-0.4152175
-0.4652175
-0.4231171
-0.4731171
-0.430904
-0.480904
-0.4384738
-0.4884738
-0.4456508
-0.4956508
-0.4521415
-0.5021415
-0.4575093
-0.5075093
-0.4612513
-0.5112513
-0.4630069
-0.5130069
-0.4627368
-0.5127368
-0.4606781
-0.5106781
-0.4571359
-0.5071359
-0.4523309
-0.5023309
-0.4463581
-0.4963581
-0.4391853
-0.4891853
-0.4306264
-0.4806264
-0.4210469
-0.4710469
-0.4103526
-0.4603526
-0.402026
-0.452026
-0.3873109
-0.4373109
-0.3980681
-0.4480681
-0.3294452
-0.3794452
-0.5080703
-0.5580703
)
;

boundaryField
{
    leftandright
    {
        type            fan;
        patchType       cyclic;
        f               1(-0.1);
        value           nonuniform List<scalar> 
150
(
0.02499999
0.02498879
0.02493793
0.02479119
0.02447464
0.02390041
0.02297142
0.02158663
0.01964594
0.01705405
0.01372249
0.009570971
0.004537384
-0.001407278
-0.008263646
-0.0160202
-0.02465451
-0.03412659
-0.04437712
-0.05532923
-0.06689133
-0.07896084
-0.09142826
-0.1041815
-0.1171097
-0.1301074
-0.1430768
-0.1559306
-0.1685932
-0.1810014
-0.1931051
-0.2048664
-0.2162595
-0.2272696
-0.2378921
-0.2481312
-0.2579995
-0.2675162
-0.2767064
-0.2856004
-0.2942325
-0.30264
-0.3108628
-0.3189419
-0.3269176
-0.3348275
-0.3427049
-0.3505769
-0.3584635
-0.3663757
-0.3743146
-0.3822698
-0.3902175
-0.3981171
-0.405904
-0.4134738
-0.4206508
-0.4271415
-0.4325093
-0.4362513
-0.4380069
-0.4377368
-0.4356781
-0.4321359
-0.4273309
-0.4213581
-0.4141853
-0.4056264
-0.3960469
-0.3853526
-0.377026
-0.3623109
-0.3730681
-0.3044452
-0.4830703
-0.07500001
-0.07501121
-0.07506207
-0.07520881
-0.07552536
-0.07609959
-0.07702858
-0.07841337
-0.08035406
-0.08294595
-0.08627751
-0.09042903
-0.09546262
-0.1014073
-0.1082636
-0.1160202
-0.1246545
-0.1341266
-0.1443771
-0.1553292
-0.1668913
-0.1789608
-0.1914283
-0.2041815
-0.2171097
-0.2301074
-0.2430768
-0.2559306
-0.2685932
-0.2810014
-0.2931051
-0.3048664
-0.3162595
-0.3272696
-0.3378921
-0.3481312
-0.3579995
-0.3675162
-0.3767064
-0.3856004
-0.3942325
-0.40264
-0.4108628
-0.4189419
-0.4269176
-0.4348275
-0.4427049
-0.4505769
-0.4584635
-0.4663757
-0.4743146
-0.4822698
-0.4902175
-0.4981171
-0.505904
-0.5134738
-0.5206508
-0.5271415
-0.5325093
-0.5362513
-0.5380069
-0.5377368
-0.5356781
-0.5321359
-0.5273309
-0.5213581
-0.5141853
-0.5056264
-0.4960469
-0.4853526
-0.477026
-0.4623109
-0.4730681
-0.4044452
-0.5830703
)
;
    }
    wall
    {
        type            zeroGradient;
    }
    frontAndBack
    {
        type            empty;
    }
    middle
    {
        type            symmetryPlane;
        value           nonuniform List<scalar> 2(-0.5080703 -0.5580703);
    }
}


// ************************************************************************* //
