/*--------------------------------*- C++ -*----------------------------------*\
| =========                 |                                                 |
| \\      /  F ield         | foam-extend: Open Source CFD                    |
|  \\    /   O peration     | Version:     4.0                                |
|   \\  /    A nd           | Web:         http://www.foam-extend.org         |
|    \\/     M anipulation  |                                                 |
\*---------------------------------------------------------------------------*/
FoamFile
{
    version     2.0;
    format      ascii;
    class       surfaceScalarField;
    location    "100";
    object      phi;
}
// * * * * * * * * * * * * * * * * * * * * * * * * * * * * * * * * * * * * * //

dimensions      [0 3 -1 0 0 0 0];

internalField   nonuniform List<scalar> 
223
(
2.424715e-05
3.807832e-12
2.772367e-14
7.769204e-05
3.936866e-12
8.468266e-14
0.0001392542
4.058785e-12
1.39658e-13
0.000209878
4.13648e-12
1.774554e-13
0.0002905806
4.177138e-12
1.922367e-13
0.0003824417
4.183824e-12
1.830232e-13
0.0004865914
4.158414e-12
1.533276e-13
0.0006041991
4.105341e-12
1.101633e-13
0.0007364685
4.030205e-12
6.118763e-14
0.0008846401
3.935843e-12
1.035767e-14
0.001050003
3.824092e-12
-4.036675e-14
0.001233909
3.734812e-12
-5.090236e-14
0.001437794
3.732287e-12
4.490024e-14
0.001662381
3.795375e-12
2.293448e-13
0.001907854
3.850585e-12
4.322236e-13
0.002174801
3.881169e-12
6.384724e-13
0.002463864
3.89237e-12
8.541818e-13
0.002775634
3.872354e-12
1.068318e-12
0.003110665
3.808372e-12
1.269686e-12
0.003469484
3.693563e-12
1.449566e-12
0.00385261
3.53048e-12
1.601531e-12
0.004260566
3.329213e-12
1.726946e-12
0.004693909
3.104211e-12
1.834613e-12
0.005153239
2.871432e-12
1.933773e-12
0.00563923
2.648154e-12
2.035098e-12
0.006152644
2.452363e-12
2.150064e-12
0.006694346
2.29724e-12
2.282574e-12
0.007265327
2.191793e-12
2.431323e-12
0.007866709
2.145888e-12
2.591154e-12
0.00849976
2.156719e-12
2.754659e-12
0.009165901
2.204775e-12
2.923256e-12
0.009866708
2.272381e-12
3.091471e-12
0.01060392
2.337903e-12
3.243974e-12
0.01137945
2.370616e-12
3.388566e-12
0.01219536
2.350347e-12
3.523944e-12
0.0130539
2.339097e-12
3.562936e-12
0.0139575
2.417449e-12
3.430174e-12
0.01490874
2.505827e-12
3.197846e-12
0.01591041
2.436522e-12
3.045263e-12
0.01696548
2.196481e-12
3.040529e-12
0.01807712
1.95877e-12
3.039135e-12
0.01924869
1.776686e-12
3.024075e-12
0.02048376
1.48608e-12
3.207315e-12
0.02178615
9.664501e-13
3.73482e-12
0.02315986
4.027886e-13
4.431675e-12
0.02460919
4.295631e-14
5.033954e-12
0.02613864
1.772026e-15
5.393565e-12
0.02775303
2.561839e-13
5.482522e-12
0.02945742
4.859244e-13
5.553282e-12
0.03125721
5.576093e-13
5.684939e-12
0.03315809
7.038631e-13
5.610128e-12
0.03516607
1.13214e-12
5.112358e-12
0.03728749
1.73932e-12
4.321726e-12
0.03952905
2.539084e-12
3.264072e-12
0.04189774
3.582566e-12
1.929099e-12
0.04440084
4.457214e-12
7.660638e-13
0.04704585
4.76783e-12
1.871819e-13
0.04984031
4.442047e-12
2.440797e-13
0.05279161
3.823409e-12
5.412176e-13
0.05590669
3.195497e-12
7.567796e-13
0.05919196
2.608963e-12
8.252057e-13
0.06265343
2.082902e-12
7.440849e-13
0.06629699
1.567937e-12
6.36796e-13
0.07012857
1.11822e-12
5.442704e-13
0.07415423
8.265355e-13
4.749811e-13
0.07838002
7.530452e-13
5.284261e-13
0.08281196
9.093321e-13
7.771561e-13
0.08745608
1.182588e-12
1.094434e-12
0.09231821
1.289509e-12
1.150494e-12
0.09740352
9.9047e-13
8.044777e-13
0.1027161
6.709646e-13
6.99637e-13
0.1082591
1.230447e-12
6.027898e-13
0.1140342
1.306142e-13
3.301145e-13
0.1200409
4.93094e-14
2.918223e-14
0.1262758
)
;

boundaryField
{
    leftandright
    {
        type            cyclic;
        value           nonuniform List<scalar> 
150
(
-2.424715e-05
-7.769204e-05
-0.0001392542
-0.000209878
-0.0002905806
-0.0003824417
-0.0004865914
-0.0006041991
-0.0007364685
-0.0008846401
-0.001050003
-0.001233909
-0.001437794
-0.001662381
-0.001907854
-0.002174801
-0.002463864
-0.002775634
-0.003110665
-0.003469484
-0.00385261
-0.004260566
-0.004693909
-0.005153239
-0.00563923
-0.006152644
-0.006694346
-0.007265327
-0.007866709
-0.00849976
-0.009165901
-0.009866708
-0.01060392
-0.01137945
-0.01219536
-0.0130539
-0.0139575
-0.01490874
-0.01591041
-0.01696548
-0.01807712
-0.01924869
-0.02048376
-0.02178615
-0.02315986
-0.02460919
-0.02613864
-0.02775303
-0.02945742
-0.03125721
-0.03315809
-0.03516607
-0.03728749
-0.03952905
-0.04189774
-0.04440084
-0.04704585
-0.04984031
-0.05279161
-0.05590669
-0.05919196
-0.06265343
-0.06629699
-0.07012857
-0.07415423
-0.07838002
-0.08281196
-0.08745608
-0.09231821
-0.09740352
-0.1027161
-0.1082591
-0.1140342
-0.1200409
-0.1262758
2.424715e-05
7.769204e-05
0.0001392542
0.000209878
0.0002905806
0.0003824417
0.0004865914
0.0006041991
0.0007364685
0.0008846401
0.001050003
0.001233909
0.001437794
0.001662381
0.001907854
0.002174801
0.002463864
0.002775634
0.003110665
0.003469484
0.00385261
0.004260566
0.004693909
0.005153239
0.00563923
0.006152644
0.006694346
0.007265327
0.007866709
0.00849976
0.009165901
0.009866708
0.01060392
0.01137945
0.01219536
0.0130539
0.0139575
0.01490874
0.01591041
0.01696548
0.01807712
0.01924869
0.02048376
0.02178615
0.02315986
0.02460919
0.02613864
0.02775303
0.02945742
0.03125721
0.03315809
0.03516607
0.03728749
0.03952905
0.04189774
0.04440084
0.04704585
0.04984031
0.05279161
0.05590669
0.05919196
0.06265343
0.06629699
0.07012857
0.07415423
0.07838002
0.08281196
0.08745608
0.09231821
0.09740352
0.1027161
0.1082591
0.1140342
0.1200409
0.1262758
)
;
    }
    wall
    {
        type            calculated;
        value           uniform 0;
    }
    frontAndBack
    {
        type            empty;
    }
    middle
    {
        type            symmetryPlane;
        value           uniform 0;
    }
}


// ************************************************************************* //
