/*--------------------------------*- C++ -*----------------------------------*\
| =========                 |                                                 |
| \\      /  F ield         | foam-extend: Open Source CFD                    |
|  \\    /   O peration     | Version:     4.0                                |
|   \\  /    A nd           | Web:         http://www.foam-extend.org         |
|    \\/     M anipulation  |                                                 |
\*---------------------------------------------------------------------------*/
FoamFile
{
    version     2.0;
    format      ascii;
    class       volScalarField;
    location    "100";
    object      QR;
}
// * * * * * * * * * * * * * * * * * * * * * * * * * * * * * * * * * * * * * //

dimensions      [0 0 -1 0 0 0 0];

internalField   nonuniform List<scalar> 
150
(
312.4962
312.4962
312.0491
312.0491
311.5112
311.5112
310.7914
310.7914
309.7651
309.7651
308.2853
308.2853
306.2044
306.2044
303.4002
303.4002
299.8003
299.8003
295.3938
295.3938
290.2276
290.2276
284.3919
284.3919
277.2676
277.2676
267.9501
267.9501
256.834
256.834
244.7536
244.7536
232.0206
232.0206
218.8405
218.8405
205.4103
205.4103
191.9152
191.9152
178.5256
178.5256
165.3935
165.3935
152.6508
152.6508
140.4074
140.4074
128.7506
128.7506
117.7452
117.7452
107.4347
107.4347
97.84278
97.84279
88.97572
88.97572
80.82494
80.82494
73.3698
73.3698
66.58032
66.58032
60.41986
60.41986
54.84741
54.84741
49.81959
49.81959
45.2923
45.2923
41.22199
41.22199
37.56655
37.56655
34.28604
34.28604
31.34302
31.34302
28.70285
28.70285
26.33372
26.33372
24.20664
24.20664
22.29535
22.29535
20.57626
20.57626
19.02823
19.02823
17.6324
17.6324
16.37196
16.37196
15.23187
15.23187
14.19867
14.19867
13.26027
13.26027
12.40567
12.40567
11.62482
11.62482
10.90826
10.90826
10.24686
10.24686
9.631263
9.631263
9.051261
9.051261
8.495288
8.495288
7.950885
7.950885
7.407132
7.407132
6.858238
6.858238
6.305137
6.305137
5.753208
5.753208
5.208516
5.208515
4.675788
4.675788
4.158426
4.158426
3.659145
3.659145
3.179615
3.179615
2.719013
2.719013
2.274517
2.274517
1.843675
1.843675
1.424879
1.424879
1.017698
1.017698
0.6221995
0.6221991
0.2143973
0.2143968
)
;

boundaryField
{
    leftandright
    {
        type            cyclic;
        value           nonuniform List<scalar> 
150
(
312.4962
312.0491
311.5112
310.7914
309.7651
308.2853
306.2044
303.4002
299.8003
295.3938
290.2276
284.3919
277.2676
267.9501
256.834
244.7536
232.0206
218.8405
205.4103
191.9152
178.5256
165.3935
152.6508
140.4074
128.7506
117.7452
107.4347
97.84278
88.97572
80.82494
73.3698
66.58032
60.41986
54.84741
49.81959
45.2923
41.22199
37.56655
34.28604
31.34302
28.70285
26.33372
24.20664
22.29535
20.57626
19.02823
17.6324
16.37196
15.23187
14.19867
13.26027
12.40567
11.62482
10.90826
10.24686
9.631263
9.051261
8.495288
7.950885
7.407132
6.858238
6.305137
5.753208
5.208515
4.675788
4.158426
3.659145
3.179615
2.719013
2.274517
1.843675
1.424879
1.017698
0.6221993
0.214397
312.4962
312.0491
311.5112
310.7914
309.7651
308.2853
306.2044
303.4002
299.8003
295.3938
290.2276
284.3919
277.2676
267.9501
256.834
244.7536
232.0206
218.8405
205.4103
191.9152
178.5256
165.3935
152.6508
140.4074
128.7506
117.7452
107.4347
97.84278
88.97572
80.82494
73.3698
66.58032
60.41986
54.84741
49.81959
45.2923
41.22199
37.56655
34.28604
31.34302
28.70285
26.33372
24.20664
22.29535
20.57626
19.02823
17.6324
16.37196
15.23187
14.19867
13.26027
12.40567
11.62482
10.90826
10.24686
9.631263
9.051261
8.495288
7.950885
7.407132
6.858238
6.305137
5.753208
5.208515
4.675788
4.158426
3.659145
3.179615
2.719013
2.274517
1.843675
1.424879
1.017698
0.6221993
0.214397
)
;
    }
    wall
    {
        type            calculated;
        value           nonuniform List<scalar> 2(312.7061 312.7061);
    }
    frontAndBack
    {
        type            empty;
    }
    middle
    {
        type            symmetryPlane;
        value           nonuniform List<scalar> 2(0.570013 0.570013);
    }
}


// ************************************************************************* //
