/*--------------------------------*- C++ -*----------------------------------*\
| =========                 |                                                 |
| \\      /  F ield         | foam-extend: Open Source CFD                    |
|  \\    /   O peration     | Version:     4.0                                |
|   \\  /    A nd           | Web:         http://www.foam-extend.org         |
|    \\/     M anipulation  |                                                 |
\*---------------------------------------------------------------------------*/
FoamFile
{
    version     2.0;
    format      ascii;
    class       volSymmTensorField;
    location    "100";
    object      RStress;
}
// * * * * * * * * * * * * * * * * * * * * * * * * * * * * * * * * * * * * * //

dimensions      [0 2 -2 0 0 0 0];

internalField   nonuniform List<symmTensor> 
150
(
(0.00478102 -7.779177e-07 0 1.955687e-07 0 8.685608e-05)
(0.004781021 -7.779178e-07 0 1.955688e-07 0 8.685611e-05)
(0.05190799 -4.041455e-05 0 9.724375e-06 0 0.0009433686)
(0.051908 -4.041455e-05 0 9.724376e-06 0 0.0009433689)
(0.1390479 -0.000263339 0 6.084598e-05 0 0.002528789)
(0.1390479 -0.000263339 0 6.084599e-05 0 0.00252879)
(0.2671187 -0.0009362135 0 0.0002087405 0 0.006393312)
(0.2671187 -0.0009362136 0 0.0002087405 0 0.006393313)
(0.4382762 -0.0024354 0 0.0005275598 0 0.01298584)
(0.4382763 -0.0024354 0 0.0005275599 0 0.01298584)
(0.6544699 -0.005208316 0 0.001105938 0 0.0229216)
(0.6544699 -0.005208317 0 0.001105938 0 0.0229216)
(0.9173498 -0.009704361 0 0.002042015 0 0.03679495)
(0.9173499 -0.009704362 0 0.002042015 0 0.03679496)
(1.227969 -0.01628536 0 0.003438254 0 0.05513002)
(1.227969 -0.01628536 0 0.003438255 0 0.05513003)
(1.586467 -0.02514322 0 0.005396543 0 0.07836177)
(1.586467 -0.02514322 0 0.005396543 0 0.07836178)
(1.991862 -0.03625905 0 0.008014157 0 0.1068216)
(1.991862 -0.03625905 0 0.008014158 0 0.1068216)
(2.442034 -0.04942143 0 0.01138115 0 0.1407321)
(2.442034 -0.04942144 0 0.01138116 0 0.1407322)
(2.933902 -0.06429143 0 0.01557912 0 0.1802148)
(2.933902 -0.06429144 0 0.01557912 0 0.1802148)
(3.463776 -0.08026878 0 0.02068125 0 0.2253077)
(3.463776 -0.08026878 0 0.02068125 0 0.2253077)
(4.025152 -0.1062501 0 0.02672247 0 0.2757392)
(4.025153 -0.1062501 0 0.02672247 0 0.2757393)
(4.602698 -0.1361839 0 0.0337008 0 0.3307328)
(4.602698 -0.1361839 0 0.0337008 0 0.3307329)
(5.181019 -0.1681319 0 0.04161428 0 0.3894723)
(5.181019 -0.1681319 0 0.04161428 0 0.3894724)
(5.745055 -0.2014284 0 0.05044771 0 0.4510461)
(5.745056 -0.2014284 0 0.05044772 0 0.4510462)
(6.280487 -0.2354041 0 0.06016831 0 0.5144474)
(6.280487 -0.2354041 0 0.06016831 0 0.5144475)
(6.774516 -0.2694282 0 0.07072587 0 0.5786205)
(6.774516 -0.2694282 0 0.07072587 0 0.5786205)
(7.216485 -0.3029153 0 0.08205435 0 0.6425094)
(7.216486 -0.3029153 0 0.08205436 0 0.6425095)
(7.598294 -0.3353372 0 0.09407461 0 0.7051058)
(7.598294 -0.3353373 0 0.09407462 0 0.7051059)
(7.914593 -0.366236 0 0.1066978 0 0.7654905)
(7.914593 -0.3662361 0 0.1066978 0 0.7654906)
(8.162774 -0.3952354 0 0.1198289 0 0.8228671)
(8.162774 -0.3952355 0 0.1198289 0 0.8228671)
(8.342781 -0.4220485 0 0.133371 0 0.8765839)
(8.342782 -0.4220486 0 0.1333711 0 0.876584)
(8.45678 -0.4464807 0 0.1472281 0 0.926146)
(8.45678 -0.4464808 0 0.1472281 0 0.9261461)
(8.50874 -0.4684274 0 0.1613081 0 0.9712157)
(8.50874 -0.4684275 0 0.1613081 0 0.9712157)
(8.503983 -0.4878671 0 0.1755251 0 1.011605)
(8.503983 -0.4878671 0 0.1755251 0 1.011605)
(8.448729 -0.5048507 0 0.1898012 0 1.04726)
(8.448729 -0.5048508 0 0.1898012 0 1.04726)
(8.349681 -0.5194888 0 0.2040665 0 1.078243)
(8.349681 -0.5194889 0 0.2040666 0 1.078243)
(8.213666 -0.5319371 0 0.2182603 0 1.10471)
(8.213666 -0.5319372 0 0.2182603 0 1.104711)
(8.047352 -0.5423827 0 0.2323301 0 1.126892)
(8.047352 -0.5423827 0 0.2323301 0 1.126892)
(7.85703 -0.5510305 0 0.2462313 0 1.145067)
(7.85703 -0.5510306 0 0.2462313 0 1.145067)
(7.648468 -0.5580928 0 0.2599262 0 1.159551)
(7.648468 -0.5580928 0 0.2599263 0 1.159551)
(7.426826 -0.5637789 0 0.2733834 0 1.170674)
(7.426826 -0.563779 0 0.2733834 0 1.170674)
(7.196617 -0.5682886 0 0.2865761 0 1.178771)
(7.196618 -0.5682887 0 0.2865761 0 1.178771)
(6.961708 -0.5718067 0 0.2994812 0 1.18417)
(6.961708 -0.5718067 0 0.2994813 0 1.18417)
(6.725343 -0.5744992 0 0.312079 0 1.187186)
(6.725343 -0.5744992 0 0.312079 0 1.187186)
(6.490188 -0.5765116 0 0.3243513 0 1.188113)
(6.490188 -0.5765117 0 0.3243514 0 1.188113)
(6.258387 -0.5779678 0 0.3362816 0 1.187223)
(6.258387 -0.5779678 0 0.3362816 0 1.187223)
(6.031615 -0.5789697 0 0.3478541 0 1.184761)
(6.031615 -0.5789697 0 0.3478541 0 1.184761)
(5.811141 -0.5795984 0 0.3590534 0 1.180949)
(5.811141 -0.5795984 0 0.3590533 0 1.180949)
(5.59788 -0.5799144 0 0.3698645 0 1.175978)
(5.59788 -0.5799144 0 0.3698645 0 1.175978)
(5.392443 -0.57996 0 0.380273 0 1.170018)
(5.392444 -0.57996 0 0.380273 0 1.170018)
(5.195187 -0.57976 0 0.3902647 0 1.163212)
(5.195187 -0.57976 0 0.3902647 0 1.163212)
(5.00625 -0.5793236 0 0.3998242 0 1.155677)
(5.00625 -0.5793236 0 0.3998242 0 1.155677)
(4.825593 -0.5786456 0 0.4089343 0 1.147505)
(4.825593 -0.5786456 0 0.4089343 0 1.147505)
(4.653022 -0.5777084 0 0.4175751 0 1.138762)
(4.653022 -0.5777084 0 0.4175751 0 1.138762)
(4.488211 -0.5764831 0 0.4257235 0 1.129488)
(4.488211 -0.576483 0 0.4257235 0 1.129488)
(4.33072 -0.574931 0 0.4333532 0 1.1197)
(4.33072 -0.574931 0 0.4333532 0 1.1197)
(4.180001 -0.5730052 0 0.4404346 0 1.109387)
(4.180001 -0.5730052 0 0.4404345 0 1.109387)
(4.035408 -0.5706502 0 0.4469343 0 1.098516)
(4.035408 -0.5706502 0 0.4469343 0 1.098516)
(3.896196 -0.5678027 0 0.4528159 0 1.087027)
(3.896196 -0.5678027 0 0.4528158 0 1.087027)
(3.761527 -0.564389 0 0.4580395 0 1.074833)
(3.761528 -0.564389 0 0.4580394 0 1.074833)
(3.630463 -0.5603202 0 0.4625623 0 1.061821)
(3.630463 -0.5603202 0 0.4625623 0 1.061821)
(3.501968 -0.5554794 0 0.466339 0 1.047851)
(3.501968 -0.5554793 0 0.4663389 0 1.047851)
(3.374917 -0.5496963 0 0.4693208 0 1.032754)
(3.374917 -0.5496963 0 0.4693208 0 1.032754)
(3.248114 -0.5427045 0 0.4714559 0 1.016341)
(3.248114 -0.5427045 0 0.4714559 0 1.016341)
(3.12036 -0.5340924 0 0.4726906 0 0.9984063)
(3.12036 -0.5340924 0 0.4726906 0 0.9984063)
(2.990561 -0.5233032 0 0.4729792 0 0.9787559)
(2.990561 -0.5233032 0 0.4729792 0 0.9787558)
(2.857924 -0.5097654 0 0.4722953 0 0.957239)
(2.857924 -0.5097653 0 0.4722953 0 0.957239)
(2.722168 -0.4931384 0 0.470629 0 0.9337966)
(2.722168 -0.4931384 0 0.470629 0 0.9337965)
(2.583667 -0.4734733 0 0.467977 0 0.9084932)
(2.583667 -0.4734733 0 0.467977 0 0.9084932)
(2.443442 -0.4511143 0 0.4643489 0 0.8815197)
(2.443442 -0.4511143 0 0.4643489 0 0.8815196)
(2.303029 -0.4264534 0 0.4597688 0 0.8531652)
(2.303029 -0.4264534 0 0.4597688 0 0.8531652)
(2.164323 -0.3997684 0 0.4542513 0 0.8237817)
(2.164323 -0.3997684 0 0.4542513 0 0.8237817)
(2.029464 -0.3711997 0 0.4477706 0 0.7937485)
(2.029464 -0.3711997 0 0.4477706 0 0.7937485)
(1.900757 -0.3407908 0 0.4402037 0 0.7634405)
(1.900757 -0.3407908 0 0.4402037 0 0.7634405)
(1.780627 -0.3084554 0 0.4314444 0 0.7331933)
(1.780627 -0.3084554 0 0.4314444 0 0.7331933)
(1.670959 -0.274124 0 0.4213521 0 0.7035511)
(1.670959 -0.274124 0 0.4213521 0 0.7035511)
(1.572681 -0.2378753 0 0.4114712 0 0.6754687)
(1.572681 -0.2378752 0 0.4114711 0 0.6754687)
(1.486924 -0.1996268 0 0.3997478 0 0.6498736)
(1.486924 -0.1996268 0 0.3997478 0 0.6498736)
(1.41497 -0.1592692 0 0.3955813 0 0.6276624)
(1.41497 -0.1592692 0 0.3955813 0 0.6276624)
(1.358227 -0.1166815 0 0.3726483 0 0.6096981)
(1.358227 -0.1166815 0 0.3726483 0 0.6096981)
(1.318291 -0.07174476 0 0.3976547 0 0.5968271)
(1.318291 -0.0717447 0 0.3976547 0 0.5968271)
(1.297048 -0.02434098 0 0.3647388 0 0.5899044)
(1.297048 -0.02434092 0 0.3647388 0 0.5899044)
)
;

boundaryField
{
    leftandright
    {
        type            cyclic;
        value           nonuniform List<symmTensor> 
150
(
(0.00478102 -7.779177e-07 0 1.955688e-07 0 8.685609e-05)
(0.05190799 -4.041455e-05 0 9.724375e-06 0 0.0009433688)
(0.1390479 -0.000263339 0 6.084598e-05 0 0.002528789)
(0.2671187 -0.0009362136 0 0.0002087405 0 0.006393312)
(0.4382763 -0.0024354 0 0.0005275599 0 0.01298584)
(0.6544699 -0.005208317 0 0.001105938 0 0.0229216)
(0.9173499 -0.009704361 0 0.002042015 0 0.03679496)
(1.227969 -0.01628536 0 0.003438255 0 0.05513002)
(1.586467 -0.02514322 0 0.005396543 0 0.07836177)
(1.991862 -0.03625905 0 0.008014158 0 0.1068216)
(2.442034 -0.04942143 0 0.01138115 0 0.1407322)
(2.933902 -0.06429144 0 0.01557912 0 0.1802148)
(3.463776 -0.08026878 0 0.02068125 0 0.2253077)
(4.025153 -0.1062501 0 0.02672247 0 0.2757392)
(4.602698 -0.1361839 0 0.0337008 0 0.3307329)
(5.181019 -0.1681319 0 0.04161428 0 0.3894723)
(5.745055 -0.2014284 0 0.05044772 0 0.4510461)
(6.280487 -0.2354041 0 0.06016831 0 0.5144475)
(6.774516 -0.2694282 0 0.07072587 0 0.5786205)
(7.216486 -0.3029153 0 0.08205436 0 0.6425094)
(7.598294 -0.3353372 0 0.09407461 0 0.7051058)
(7.914593 -0.366236 0 0.1066978 0 0.7654906)
(8.162774 -0.3952354 0 0.1198289 0 0.8228671)
(8.342781 -0.4220485 0 0.133371 0 0.876584)
(8.45678 -0.4464808 0 0.1472281 0 0.926146)
(8.50874 -0.4684274 0 0.1613081 0 0.9712157)
(8.503983 -0.4878671 0 0.1755251 0 1.011605)
(8.448729 -0.5048507 0 0.1898012 0 1.04726)
(8.349681 -0.5194888 0 0.2040666 0 1.078243)
(8.213666 -0.5319371 0 0.2182603 0 1.10471)
(8.047352 -0.5423827 0 0.2323301 0 1.126892)
(7.85703 -0.5510306 0 0.2462313 0 1.145067)
(7.648468 -0.5580928 0 0.2599263 0 1.159551)
(7.426826 -0.5637789 0 0.2733834 0 1.170674)
(7.196618 -0.5682887 0 0.2865761 0 1.178771)
(6.961708 -0.5718067 0 0.2994813 0 1.18417)
(6.725343 -0.5744992 0 0.312079 0 1.187186)
(6.490188 -0.5765116 0 0.3243513 0 1.188113)
(6.258387 -0.5779678 0 0.3362816 0 1.187223)
(6.031615 -0.5789697 0 0.3478541 0 1.184761)
(5.811141 -0.5795984 0 0.3590534 0 1.180949)
(5.59788 -0.5799144 0 0.3698645 0 1.175978)
(5.392443 -0.57996 0 0.380273 0 1.170018)
(5.195187 -0.57976 0 0.3902647 0 1.163212)
(5.00625 -0.5793236 0 0.3998242 0 1.155677)
(4.825593 -0.5786456 0 0.4089343 0 1.147505)
(4.653022 -0.5777084 0 0.4175751 0 1.138762)
(4.488211 -0.576483 0 0.4257235 0 1.129488)
(4.33072 -0.574931 0 0.4333532 0 1.1197)
(4.180001 -0.5730052 0 0.4404345 0 1.109387)
(4.035408 -0.5706502 0 0.4469343 0 1.098516)
(3.896196 -0.5678027 0 0.4528158 0 1.087027)
(3.761527 -0.564389 0 0.4580395 0 1.074833)
(3.630463 -0.5603202 0 0.4625623 0 1.061821)
(3.501968 -0.5554794 0 0.4663389 0 1.047851)
(3.374917 -0.5496963 0 0.4693208 0 1.032754)
(3.248114 -0.5427045 0 0.4714559 0 1.016341)
(3.12036 -0.5340924 0 0.4726906 0 0.9984063)
(2.990561 -0.5233032 0 0.4729792 0 0.9787558)
(2.857924 -0.5097654 0 0.4722953 0 0.957239)
(2.722168 -0.4931384 0 0.470629 0 0.9337966)
(2.583667 -0.4734733 0 0.467977 0 0.9084932)
(2.443442 -0.4511143 0 0.4643489 0 0.8815196)
(2.303029 -0.4264534 0 0.4597688 0 0.8531652)
(2.164323 -0.3997684 0 0.4542513 0 0.8237817)
(2.029464 -0.3711997 0 0.4477706 0 0.7937485)
(1.900757 -0.3407908 0 0.4402037 0 0.7634405)
(1.780627 -0.3084554 0 0.4314444 0 0.7331933)
(1.670959 -0.274124 0 0.4213521 0 0.7035511)
(1.572681 -0.2378752 0 0.4114711 0 0.6754687)
(1.486924 -0.1996268 0 0.3997478 0 0.6498736)
(1.41497 -0.1592692 0 0.3955813 0 0.6276624)
(1.358227 -0.1166815 0 0.3726483 0 0.6096981)
(1.318291 -0.07174473 0 0.3976547 0 0.5968271)
(1.297048 -0.02434095 0 0.3647388 0 0.5899044)
(0.00478102 -7.779177e-07 0 1.955688e-07 0 8.685609e-05)
(0.05190799 -4.041455e-05 0 9.724375e-06 0 0.0009433688)
(0.1390479 -0.000263339 0 6.084598e-05 0 0.002528789)
(0.2671187 -0.0009362136 0 0.0002087405 0 0.006393312)
(0.4382763 -0.0024354 0 0.0005275599 0 0.01298584)
(0.6544699 -0.005208317 0 0.001105938 0 0.0229216)
(0.9173499 -0.009704361 0 0.002042015 0 0.03679496)
(1.227969 -0.01628536 0 0.003438255 0 0.05513002)
(1.586467 -0.02514322 0 0.005396543 0 0.07836177)
(1.991862 -0.03625905 0 0.008014158 0 0.1068216)
(2.442034 -0.04942143 0 0.01138115 0 0.1407322)
(2.933902 -0.06429144 0 0.01557912 0 0.1802148)
(3.463776 -0.08026878 0 0.02068125 0 0.2253077)
(4.025153 -0.1062501 0 0.02672247 0 0.2757392)
(4.602698 -0.1361839 0 0.0337008 0 0.3307329)
(5.181019 -0.1681319 0 0.04161428 0 0.3894723)
(5.745055 -0.2014284 0 0.05044772 0 0.4510461)
(6.280487 -0.2354041 0 0.06016831 0 0.5144475)
(6.774516 -0.2694282 0 0.07072587 0 0.5786205)
(7.216486 -0.3029153 0 0.08205436 0 0.6425094)
(7.598294 -0.3353372 0 0.09407461 0 0.7051058)
(7.914593 -0.366236 0 0.1066978 0 0.7654906)
(8.162774 -0.3952354 0 0.1198289 0 0.8228671)
(8.342781 -0.4220485 0 0.133371 0 0.876584)
(8.45678 -0.4464808 0 0.1472281 0 0.926146)
(8.50874 -0.4684274 0 0.1613081 0 0.9712157)
(8.503983 -0.4878671 0 0.1755251 0 1.011605)
(8.448729 -0.5048507 0 0.1898012 0 1.04726)
(8.349681 -0.5194888 0 0.2040666 0 1.078243)
(8.213666 -0.5319371 0 0.2182603 0 1.10471)
(8.047352 -0.5423827 0 0.2323301 0 1.126892)
(7.85703 -0.5510306 0 0.2462313 0 1.145067)
(7.648468 -0.5580928 0 0.2599263 0 1.159551)
(7.426826 -0.5637789 0 0.2733834 0 1.170674)
(7.196618 -0.5682887 0 0.2865761 0 1.178771)
(6.961708 -0.5718067 0 0.2994813 0 1.18417)
(6.725343 -0.5744992 0 0.312079 0 1.187186)
(6.490188 -0.5765116 0 0.3243513 0 1.188113)
(6.258387 -0.5779678 0 0.3362816 0 1.187223)
(6.031615 -0.5789697 0 0.3478541 0 1.184761)
(5.811141 -0.5795984 0 0.3590534 0 1.180949)
(5.59788 -0.5799144 0 0.3698645 0 1.175978)
(5.392443 -0.57996 0 0.380273 0 1.170018)
(5.195187 -0.57976 0 0.3902647 0 1.163212)
(5.00625 -0.5793236 0 0.3998242 0 1.155677)
(4.825593 -0.5786456 0 0.4089343 0 1.147505)
(4.653022 -0.5777084 0 0.4175751 0 1.138762)
(4.488211 -0.576483 0 0.4257235 0 1.129488)
(4.33072 -0.574931 0 0.4333532 0 1.1197)
(4.180001 -0.5730052 0 0.4404345 0 1.109387)
(4.035408 -0.5706502 0 0.4469343 0 1.098516)
(3.896196 -0.5678027 0 0.4528158 0 1.087027)
(3.761527 -0.564389 0 0.4580395 0 1.074833)
(3.630463 -0.5603202 0 0.4625623 0 1.061821)
(3.501968 -0.5554794 0 0.4663389 0 1.047851)
(3.374917 -0.5496963 0 0.4693208 0 1.032754)
(3.248114 -0.5427045 0 0.4714559 0 1.016341)
(3.12036 -0.5340924 0 0.4726906 0 0.9984063)
(2.990561 -0.5233032 0 0.4729792 0 0.9787558)
(2.857924 -0.5097654 0 0.4722953 0 0.957239)
(2.722168 -0.4931384 0 0.470629 0 0.9337966)
(2.583667 -0.4734733 0 0.467977 0 0.9084932)
(2.443442 -0.4511143 0 0.4643489 0 0.8815196)
(2.303029 -0.4264534 0 0.4597688 0 0.8531652)
(2.164323 -0.3997684 0 0.4542513 0 0.8237817)
(2.029464 -0.3711997 0 0.4477706 0 0.7937485)
(1.900757 -0.3407908 0 0.4402037 0 0.7634405)
(1.780627 -0.3084554 0 0.4314444 0 0.7331933)
(1.670959 -0.274124 0 0.4213521 0 0.7035511)
(1.572681 -0.2378752 0 0.4114711 0 0.6754687)
(1.486924 -0.1996268 0 0.3997478 0 0.6498736)
(1.41497 -0.1592692 0 0.3955813 0 0.6276624)
(1.358227 -0.1166815 0 0.3726483 0 0.6096981)
(1.318291 -0.07174473 0 0.3976547 0 0.5968271)
(1.297048 -0.02434095 0 0.3647388 0 0.5899044)
)
;
    }
    wall
    {
        type            calculated;
        value           nonuniform List<symmTensor> 2((3.333333e-11 -3.882912e-10 0 9.999755e-11 0 6.666667e-11) (3.333333e-11 -3.882912e-10 0 9.999755e-11 0 6.666667e-11));
    }
    frontAndBack
    {
        type            empty;
    }
    middle
    {
        type            symmetryPlane;
        value           nonuniform List<symmTensor> 2((1.297048 0 0 0.4941675 0 0.5899044) (1.297048 0 0 0.4941675 0 0.5899044));
    }
}


// ************************************************************************* //
