/*--------------------------------*- C++ -*----------------------------------*\
| =========                 |                                                 |
| \\      /  F ield         | foam-extend: Open Source CFD                    |
|  \\    /   O peration     | Version:     4.0                                |
|   \\  /    A nd           | Web:         http://www.foam-extend.org         |
|    \\/     M anipulation  |                                                 |
\*---------------------------------------------------------------------------*/
FoamFile
{
    version     2.0;
    format      ascii;
    class       volSymmTensorField;
    location    "100";
    object      tauP;
}
// * * * * * * * * * * * * * * * * * * * * * * * * * * * * * * * * * * * * * //

dimensions      [0 2 -2 0 0 0 0];

internalField   nonuniform List<symmTensor> 
150
(
(4.367327 0.06053668 0 6.097423e-06 0 2.491272e-06)
(4.367324 0.06053664 0 6.096703e-06 0 2.491386e-06)
(4.364503 0.06052377 0 6.429767e-06 0 2.378019e-06)
(4.364501 0.06052372 0 6.429007e-06 0 2.37812e-06)
(4.359279 0.06050825 0 7.346929e-06 0 2.254731e-06)
(4.359276 0.0605082 0 7.346164e-06 0 2.254827e-06)
(4.351638 0.06049622 0 9.151818e-06 0 2.154637e-06)
(4.351635 0.06049618 0 9.151071e-06 0 2.154736e-06)
(4.341207 0.06049162 0 1.22701e-05 0 2.058708e-06)
(4.341205 0.06049158 0 1.226939e-05 0 2.058819e-06)
(4.327421 0.06049928 0 1.734302e-05 0 1.918975e-06)
(4.32742 0.06049924 0 1.734237e-05 0 1.919109e-06)
(4.309774 0.06052867 0 2.530579e-05 0 1.688617e-06)
(4.309774 0.06052863 0 2.530521e-05 0 1.688787e-06)
(4.288116 0.06059776 0 3.743905e-05 0 1.35444e-06)
(4.288116 0.06059773 0 3.743855e-05 0 1.354659e-06)
(4.262891 0.06073614 0 5.538848e-05 0 9.638987e-07)
(4.262891 0.06073612 0 5.538809e-05 0 9.641801e-07)
(4.235178 0.06098616 0 8.117893e-05 0 6.35134e-07)
(4.235179 0.06098615 0 8.117869e-05 0 6.354863e-07)
(4.206327 0.06140065 0 0.0001172896 0 5.301763e-07)
(4.206329 0.06140065 0 0.0001172896 0 5.306026e-07)
(4.176871 0.06203328 0 0.0001668943 0 7.392941e-07)
(4.176874 0.06203329 0 0.0001668945 0 7.397905e-07)
(4.143943 0.06290551 0 0.000234247 0 9.162925e-07)
(4.143946 0.06290555 0 0.0002342477 0 9.168494e-07)
(4.103905 0.06403118 0 0.0003268822 0 5.918689e-07)
(4.103909 0.06403123 0 0.0003268833 0 5.924742e-07)
(4.057898 0.06546798 0 0.0004492157 0 -1.434926e-07)
(4.057902 0.06546804 0 0.0004492174 0 -1.428515e-07)
(4.011074 0.06731355 0 0.0006064855 0 -7.820363e-07)
(4.011078 0.06731363 0 0.0006064877 0 -7.813762e-07)
(3.966901 0.06963946 0 0.000805201 0 -1.116632e-06)
(3.966905 0.06963955 0 0.0008052039 0 -1.115972e-06)
(3.926829 0.07249279 0 0.001053157 0 -1.163749e-06)
(3.926833 0.07249289 0 0.001053161 0 -1.163104e-06)
(3.891026 0.07590689 0 0.001359661 0 -1.007844e-06)
(3.89103 0.07590699 0 0.001359665 0 -1.007236e-06)
(3.858833 0.07990415 0 0.001735618 0 -7.343332e-07)
(3.858837 0.07990426 0 0.001735622 0 -7.337702e-07)
(3.829017 0.08449386 0 0.002193457 0 -4.105739e-07)
(3.829021 0.08449397 0 0.002193462 0 -4.100149e-07)
(3.799927 0.08966797 0 0.002746907 0 -8.581243e-08)
(3.799931 0.08966809 0 0.002746912 0 -8.521274e-08)
(3.769631 0.09539688 0 0.003410603 0 2.050119e-07)
(3.769634 0.09539701 0 0.00341061 0 2.056755e-07)
(3.736075 0.1016266 0 0.004199547 0 4.38837e-07)
(3.736078 0.1016268 0 0.004199554 0 4.395156e-07)
(3.69726 0.1082782 0 0.005128429 0 6.03427e-07)
(3.697263 0.1082783 0 0.005128436 0 6.040582e-07)
(3.651426 0.1152493 0 0.00621088 0 6.965056e-07)
(3.651429 0.1152494 0 0.006210888 0 6.971419e-07)
(3.597196 0.1224182 0 0.007458698 0 7.244255e-07)
(3.597199 0.1224183 0 0.007458705 0 7.251752e-07)
(3.533679 0.1296498 0 0.0088811 0 6.994412e-07)
(3.533681 0.1296499 0 0.008881108 0 7.002781e-07)
(3.460499 0.1368017 0 0.01048406 0 6.363532e-07)
(3.460501 0.1368018 0 0.01048406 0 6.373352e-07)
(3.377778 0.1437308 0 0.01226971 0 5.504104e-07)
(3.377781 0.1437309 0 0.01226972 0 5.514946e-07)
(3.286062 0.150299 0 0.01423592 0 4.549036e-07)
(3.286064 0.1502991 0 0.01423592 0 4.558083e-07)
(3.186221 0.1563778 0 0.01637586 0 3.599085e-07)
(3.186223 0.1563779 0 0.01637587 0 3.608504e-07)
(3.07935 0.1618517 0 0.01867781 0 2.727805e-07)
(3.079352 0.1618518 0 0.01867782 0 2.736582e-07)
(2.96666 0.1666205 0 0.0211249 0 1.979153e-07)
(2.966661 0.1666206 0 0.02112491 0 1.985705e-07)
(2.849392 0.1706001 0 0.02369509 0 1.370215e-07)
(2.849392 0.1706001 0 0.02369509 0 1.374107e-07)
(2.72875 0.173723 0 0.02636111 0 9.05605e-08)
(2.72875 0.1737231 0 0.02636112 0 9.082908e-08)
(2.605847 0.1759378 0 0.02909059 0 5.752388e-08)
(2.605848 0.1759379 0 0.02909061 0 5.767072e-08)
(2.481675 0.1772085 0 0.03184627 0 3.683205e-08)
(2.481675 0.1772086 0 0.03184629 0 3.672146e-08)
(2.357081 0.1775132 0 0.03458632 0 2.635724e-08)
(2.357081 0.1775133 0 0.03458634 0 2.624742e-08)
(2.232765 0.1768432 0 0.03726471 0 2.429402e-08)
(2.232765 0.1768432 0 0.03726472 0 2.390737e-08)
(2.109284 0.1752012 0 0.03983192 0 2.887529e-08)
(2.109284 0.1752012 0 0.03983193 0 2.825912e-08)
(1.987059 0.1726003 0 0.04223556 0 3.835051e-08)
(1.987058 0.1726003 0 0.04223558 0 3.76603e-08)
(1.866384 0.169063 0 0.04442131 0 5.140562e-08)
(1.866384 0.169063 0 0.04442132 0 5.06844e-08)
(1.747454 0.1646195 0 0.04633386 0 6.691065e-08)
(1.747454 0.1646195 0 0.04633386 0 6.605908e-08)
(1.630368 0.1593065 0 0.04791765 0 8.395043e-08)
(1.630368 0.1593065 0 0.04791765 0 8.298735e-08)
(1.515155 0.1531655 0 0.0491178 0 1.016458e-07)
(1.515156 0.1531655 0 0.04911782 0 1.009053e-07)
(1.401787 0.1462425 0 0.04988119 0 1.197514e-07)
(1.401787 0.1462426 0 0.04988121 0 1.191055e-07)
(1.290192 0.1385866 0 0.05015754 0 1.378101e-07)
(1.290193 0.1385867 0 0.0501576 0 1.371496e-07)
(1.180274 0.1302497 0 0.04990074 0 1.555507e-07)
(1.180276 0.1302498 0 0.04990079 0 1.551281e-07)
(1.071925 0.1212855 0 0.04906986 0 1.731134e-07)
(1.071926 0.1212857 0 0.04906992 0 1.726397e-07)
(0.9650376 0.11175 0 0.04763066 0 1.900773e-07)
(0.9650391 0.1117502 0 0.04763072 0 1.89836e-07)
(0.8595307 0.1017017 0 0.04555697 0 2.060402e-07)
(0.8595327 0.101702 0 0.04555708 0 2.059432e-07)
(0.7553769 0.09120381 0 0.04283281 0 2.199989e-07)
(0.755379 0.09120406 0 0.04283292 0 2.198431e-07)
(0.6526572 0.08032947 0 0.03945596 0 2.289989e-07)
(0.6526592 0.08032971 0 0.03945608 0 2.290182e-07)
(0.5516639 0.06917395 0 0.03544547 0 2.277722e-07)
(0.5516659 0.0691742 0 0.03544561 0 2.278191e-07)
(0.4531038 0.05787994 0 0.0308575 0 2.073334e-07)
(0.4531056 0.05788016 0 0.03085762 0 2.07489e-07)
(0.3584524 0.0466844 0 0.02581626 0 1.580333e-07)
(0.3584537 0.04668459 0 0.02581636 0 1.58258e-07)
(0.2704169 0.03598262 0 0.02056131 0 7.794798e-08)
(0.2704179 0.03598274 0 0.02056137 0 7.807482e-08)
(0.1930831 0.0263562 0 0.01548179 0 -1.253632e-08)
(0.1930836 0.02635627 0 0.01548183 0 -1.249219e-08)
(0.1308189 0.01844176 0 0.01105487 0 -7.358935e-08)
(0.1308193 0.01844182 0 0.0110549 0 -7.347166e-08)
(0.0857257 0.01259795 0 0.007634055 0 -8.309688e-08)
(0.08572591 0.01259798 0 0.007634075 0 -8.301669e-08)
(0.05595988 0.00866393 0 0.005252742 0 -6.004684e-08)
(0.05596001 0.00866395 0 0.005252757 0 -6.012856e-08)
(0.03720056 0.006128298 0 0.003681935 0 -3.466574e-08)
(0.03720064 0.00612831 0 0.003681943 0 -3.464298e-08)
(0.02531826 0.004477052 0 0.002642781 0 -1.864885e-08)
(0.02531831 0.004477059 0 0.002642786 0 -1.865473e-08)
(0.01754166 0.003358211 0 0.00193063 0 -1.04065e-08)
(0.01754168 0.003358216 0 0.001930633 0 -1.044128e-08)
(0.01226695 0.002566227 0 0.001422171 0 -6.353215e-09)
(0.01226696 0.002566229 0 0.001422173 0 -6.520435e-09)
(0.00858852 0.001984715 0 0.001046838 0 -4.508863e-09)
(0.008588528 0.001984717 0 0.00104684 0 -4.330357e-09)
(0.005966631 0.001543716 0 0.0007614261 0 -3.861215e-09)
(0.005966638 0.001543718 0 0.0007614268 0 -3.319339e-09)
(0.004078911 0.00120177 0 0.000543048 0 -3.551067e-09)
(0.004078918 0.001201772 0 0.00054305 0 -2.414757e-09)
(0.00269477 0.0009265355 0 0.0003702632 0 -2.661024e-09)
(0.002694772 0.0009265359 0 0.0003702635 0 -1.469619e-09)
(0.001719666 0.0007074982 0 0.0002497719 0 7.876244e-11)
(0.001719662 0.0007074972 0 0.0002497716 0 4.062759e-10)
(0.0009474602 0.0005094765 0 0.0001255864 0 1.509448e-09)
(0.0009474557 0.0005094745 0 0.0001255841 0 -5.261634e-10)
(0.0005936991 0.0003678372 0 0.0001284377 0 2.189287e-09)
(0.000593696 0.0003678368 0 0.0001284344 0 -2.410739e-09)
(3.991363e-05 0.0001945412 0 -5.318322e-05 0 -2.466954e-09)
(3.9913e-05 0.0001945422 0 -5.318262e-05 0 -1.492222e-09)
(9.588473e-05 7.083495e-05 0 4.917909e-05 0 1.189719e-09)
(9.588241e-05 7.083447e-05 0 4.917696e-05 0 2.165846e-10)
)
;

boundaryField
{
    leftandright
    {
        type            cyclic;
        value           nonuniform List<symmTensor> 
150
(
(4.367326 0.06053666 0 6.097063e-06 0 2.491329e-06)
(4.364502 0.06052375 0 6.429387e-06 0 2.378069e-06)
(4.359278 0.06050823 0 7.346547e-06 0 2.254779e-06)
(4.351636 0.0604962 0 9.151445e-06 0 2.154687e-06)
(4.341206 0.0604916 0 1.226975e-05 0 2.058763e-06)
(4.327421 0.06049926 0 1.734269e-05 0 1.919042e-06)
(4.309774 0.06052865 0 2.53055e-05 0 1.688702e-06)
(4.288116 0.06059775 0 3.74388e-05 0 1.354549e-06)
(4.262891 0.06073613 0 5.538829e-05 0 9.640394e-07)
(4.235178 0.06098615 0 8.117881e-05 0 6.353102e-07)
(4.206328 0.06140065 0 0.0001172896 0 5.303894e-07)
(4.176872 0.06203328 0 0.0001668944 0 7.395423e-07)
(4.143944 0.06290553 0 0.0002342474 0 9.16571e-07)
(4.103907 0.0640312 0 0.0003268827 0 5.921715e-07)
(4.0579 0.06546801 0 0.0004492166 0 -1.43172e-07)
(4.011076 0.06731359 0 0.0006064866 0 -7.817062e-07)
(3.966903 0.0696395 0 0.0008052024 0 -1.116302e-06)
(3.926831 0.07249284 0 0.001053159 0 -1.163426e-06)
(3.891028 0.07590694 0 0.001359663 0 -1.00754e-06)
(3.858835 0.07990421 0 0.00173562 0 -7.340517e-07)
(3.829019 0.08449392 0 0.002193459 0 -4.102944e-07)
(3.799929 0.08966803 0 0.002746909 0 -8.551258e-08)
(3.769633 0.09539694 0 0.003410607 0 2.053437e-07)
(3.736076 0.1016267 0 0.004199551 0 4.391763e-07)
(3.697262 0.1082783 0 0.005128433 0 6.037426e-07)
(3.651427 0.1152493 0 0.006210884 0 6.968237e-07)
(3.597197 0.1224182 0 0.007458702 0 7.248004e-07)
(3.53368 0.1296499 0 0.008881104 0 6.998597e-07)
(3.4605 0.1368018 0 0.01048406 0 6.368442e-07)
(3.377779 0.1437309 0 0.01226971 0 5.509525e-07)
(3.286063 0.150299 0 0.01423592 0 4.553559e-07)
(3.186222 0.1563778 0 0.01637587 0 3.603794e-07)
(3.079351 0.1618517 0 0.01867781 0 2.732193e-07)
(2.96666 0.1666205 0 0.02112491 0 1.982429e-07)
(2.849392 0.1706001 0 0.02369509 0 1.372161e-07)
(2.72875 0.173723 0 0.02636111 0 9.069479e-08)
(2.605847 0.1759378 0 0.0290906 0 5.75973e-08)
(2.481675 0.1772085 0 0.03184628 0 3.677675e-08)
(2.357081 0.1775133 0 0.03458633 0 2.630233e-08)
(2.232765 0.1768432 0 0.03726471 0 2.410069e-08)
(2.109284 0.1752012 0 0.03983193 0 2.856721e-08)
(1.987058 0.1726003 0 0.04223557 0 3.80054e-08)
(1.866384 0.169063 0 0.04442131 0 5.104501e-08)
(1.747454 0.1646195 0 0.04633386 0 6.648486e-08)
(1.630368 0.1593065 0 0.04791765 0 8.346889e-08)
(1.515156 0.1531655 0 0.04911781 0 1.012756e-07)
(1.401787 0.1462425 0 0.0498812 0 1.194284e-07)
(1.290192 0.1385867 0 0.05015757 0 1.374799e-07)
(1.180275 0.1302498 0 0.04990076 0 1.553394e-07)
(1.071926 0.1212856 0 0.04906989 0 1.728765e-07)
(0.9650383 0.1117501 0 0.04763069 0 1.899566e-07)
(0.8595317 0.1017019 0 0.04555703 0 2.059917e-07)
(0.7553779 0.09120394 0 0.04283286 0 2.19921e-07)
(0.6526582 0.08032959 0 0.03945602 0 2.290085e-07)
(0.5516649 0.06917408 0 0.03544554 0 2.277956e-07)
(0.4531047 0.05788005 0 0.03085756 0 2.074112e-07)
(0.3584531 0.0466845 0 0.02581631 0 1.581456e-07)
(0.2704174 0.03598268 0 0.02056134 0 7.80114e-08)
(0.1930834 0.02635623 0 0.01548181 0 -1.251426e-08)
(0.1308191 0.01844179 0 0.01105488 0 -7.35305e-08)
(0.08572581 0.01259796 0 0.007634065 0 -8.305679e-08)
(0.05595994 0.00866394 0 0.00525275 0 -6.00877e-08)
(0.0372006 0.006128304 0 0.003681939 0 -3.465436e-08)
(0.02531829 0.004477055 0 0.002642784 0 -1.865179e-08)
(0.01754167 0.003358214 0 0.001930631 0 -1.042389e-08)
(0.01226696 0.002566228 0 0.001422172 0 -6.436825e-09)
(0.008588524 0.001984716 0 0.001046839 0 -4.41961e-09)
(0.005966634 0.001543717 0 0.0007614264 0 -3.590277e-09)
(0.004078915 0.001201771 0 0.000543049 0 -2.982912e-09)
(0.002694771 0.0009265357 0 0.0003702634 0 -2.065322e-09)
(0.001719664 0.0007074977 0 0.0002497717 0 2.425191e-10)
(0.0009474579 0.0005094755 0 0.0001255853 0 4.916426e-10)
(0.0005936975 0.000367837 0 0.0001284361 0 -1.10726e-10)
(3.991332e-05 0.0001945417 0 -5.318292e-05 0 -1.979588e-09)
(9.588357e-05 7.083471e-05 0 4.917802e-05 0 7.031519e-10)
(4.367326 0.06053666 0 6.097063e-06 0 2.491329e-06)
(4.364502 0.06052375 0 6.429387e-06 0 2.378069e-06)
(4.359278 0.06050823 0 7.346547e-06 0 2.254779e-06)
(4.351636 0.0604962 0 9.151445e-06 0 2.154687e-06)
(4.341206 0.0604916 0 1.226975e-05 0 2.058763e-06)
(4.327421 0.06049926 0 1.734269e-05 0 1.919042e-06)
(4.309774 0.06052865 0 2.53055e-05 0 1.688702e-06)
(4.288116 0.06059775 0 3.74388e-05 0 1.354549e-06)
(4.262891 0.06073613 0 5.538829e-05 0 9.640394e-07)
(4.235178 0.06098615 0 8.117881e-05 0 6.353102e-07)
(4.206328 0.06140065 0 0.0001172896 0 5.303894e-07)
(4.176872 0.06203328 0 0.0001668944 0 7.395423e-07)
(4.143944 0.06290553 0 0.0002342474 0 9.16571e-07)
(4.103907 0.0640312 0 0.0003268827 0 5.921715e-07)
(4.0579 0.06546801 0 0.0004492166 0 -1.43172e-07)
(4.011076 0.06731359 0 0.0006064866 0 -7.817062e-07)
(3.966903 0.0696395 0 0.0008052024 0 -1.116302e-06)
(3.926831 0.07249284 0 0.001053159 0 -1.163426e-06)
(3.891028 0.07590694 0 0.001359663 0 -1.00754e-06)
(3.858835 0.07990421 0 0.00173562 0 -7.340517e-07)
(3.829019 0.08449392 0 0.002193459 0 -4.102944e-07)
(3.799929 0.08966803 0 0.002746909 0 -8.551258e-08)
(3.769633 0.09539694 0 0.003410607 0 2.053437e-07)
(3.736076 0.1016267 0 0.004199551 0 4.391763e-07)
(3.697262 0.1082783 0 0.005128433 0 6.037426e-07)
(3.651427 0.1152493 0 0.006210884 0 6.968237e-07)
(3.597197 0.1224182 0 0.007458702 0 7.248004e-07)
(3.53368 0.1296499 0 0.008881104 0 6.998597e-07)
(3.4605 0.1368018 0 0.01048406 0 6.368442e-07)
(3.377779 0.1437309 0 0.01226971 0 5.509525e-07)
(3.286063 0.150299 0 0.01423592 0 4.553559e-07)
(3.186222 0.1563778 0 0.01637587 0 3.603794e-07)
(3.079351 0.1618517 0 0.01867781 0 2.732193e-07)
(2.96666 0.1666205 0 0.02112491 0 1.982429e-07)
(2.849392 0.1706001 0 0.02369509 0 1.372161e-07)
(2.72875 0.173723 0 0.02636111 0 9.069479e-08)
(2.605847 0.1759378 0 0.0290906 0 5.75973e-08)
(2.481675 0.1772085 0 0.03184628 0 3.677675e-08)
(2.357081 0.1775133 0 0.03458633 0 2.630233e-08)
(2.232765 0.1768432 0 0.03726471 0 2.410069e-08)
(2.109284 0.1752012 0 0.03983193 0 2.856721e-08)
(1.987058 0.1726003 0 0.04223557 0 3.80054e-08)
(1.866384 0.169063 0 0.04442131 0 5.104501e-08)
(1.747454 0.1646195 0 0.04633386 0 6.648486e-08)
(1.630368 0.1593065 0 0.04791765 0 8.346889e-08)
(1.515156 0.1531655 0 0.04911781 0 1.012756e-07)
(1.401787 0.1462425 0 0.0498812 0 1.194284e-07)
(1.290192 0.1385867 0 0.05015757 0 1.374799e-07)
(1.180275 0.1302498 0 0.04990076 0 1.553394e-07)
(1.071926 0.1212856 0 0.04906989 0 1.728765e-07)
(0.9650383 0.1117501 0 0.04763069 0 1.899566e-07)
(0.8595317 0.1017019 0 0.04555703 0 2.059917e-07)
(0.7553779 0.09120394 0 0.04283286 0 2.19921e-07)
(0.6526582 0.08032959 0 0.03945602 0 2.290085e-07)
(0.5516649 0.06917408 0 0.03544554 0 2.277956e-07)
(0.4531047 0.05788005 0 0.03085756 0 2.074112e-07)
(0.3584531 0.0466845 0 0.02581631 0 1.581456e-07)
(0.2704174 0.03598268 0 0.02056134 0 7.80114e-08)
(0.1930834 0.02635623 0 0.01548181 0 -1.251426e-08)
(0.1308191 0.01844179 0 0.01105488 0 -7.35305e-08)
(0.08572581 0.01259796 0 0.007634065 0 -8.305679e-08)
(0.05595994 0.00866394 0 0.00525275 0 -6.00877e-08)
(0.0372006 0.006128304 0 0.003681939 0 -3.465436e-08)
(0.02531829 0.004477055 0 0.002642784 0 -1.865179e-08)
(0.01754167 0.003358214 0 0.001930631 0 -1.042389e-08)
(0.01226696 0.002566228 0 0.001422172 0 -6.436825e-09)
(0.008588524 0.001984716 0 0.001046839 0 -4.41961e-09)
(0.005966634 0.001543717 0 0.0007614264 0 -3.590277e-09)
(0.004078915 0.001201771 0 0.000543049 0 -2.982912e-09)
(0.002694771 0.0009265357 0 0.0003702634 0 -2.065322e-09)
(0.001719664 0.0007074977 0 0.0002497717 0 2.425191e-10)
(0.0009474579 0.0005094755 0 0.0001255853 0 4.916426e-10)
(0.0005936975 0.000367837 0 0.0001284361 0 -1.10726e-10)
(3.991332e-05 0.0001945417 0 -5.318292e-05 0 -1.979588e-09)
(9.588357e-05 7.083471e-05 0 4.917802e-05 0 7.031519e-10)
)
;
    }
    wall
    {
        type            calculated;
        value           nonuniform List<symmTensor> 2((4.367327 0.06053668 0 6.097423e-06 0 2.491272e-06) (4.367324 0.06053664 0 6.096703e-06 0 2.491386e-06));
    }
    frontAndBack
    {
        type            empty;
    }
    middle
    {
        type            symmetryPlane;
        value           nonuniform List<symmTensor> 2((9.588473e-05 0 0 4.917909e-05 0 1.189719e-09) (9.588241e-05 0 0 4.917696e-05 0 2.165846e-10));
    }
}


// ************************************************************************* //
