/*--------------------------------*- C++ -*----------------------------------*\
| =========                 |                                                 |
| \\      /  F ield         | foam-extend: Open Source CFD                    |
|  \\    /   O peration     | Version:     4.0                                |
|   \\  /    A nd           | Web:         http://www.foam-extend.org         |
|    \\/     M anipulation  |                                                 |
\*---------------------------------------------------------------------------*/
FoamFile
{
    version     2.0;
    format      ascii;
    class       volScalarField;
    location    "100";
    object      trC;
}
// * * * * * * * * * * * * * * * * * * * * * * * * * * * * * * * * * * * * * //

dimensions      [0 0 0 0 0 0 0];

internalField   nonuniform List<scalar> 
150
(
1518.269
1518.269
1517.702
1517.702
1516.652
1516.652
1515.115
1515.114
1513.012
1513.012
1510.228
1510.227
1506.652
1506.652
1502.248
1502.248
1497.095
1497.095
1491.407
1491.407
1485.454
1485.454
1479.344
1479.344
1472.474
1472.475
1464.063
1464.064
1454.319
1454.32
1444.318
1444.319
1434.807
1434.808
1426.122
1426.123
1418.322
1418.323
1411.282
1411.283
1404.746
1404.747
1398.356
1398.357
1391.68
1391.681
1384.251
1384.252
1375.6
1375.6
1365.292
1365.293
1352.965
1352.965
1338.343
1338.343
1321.25
1321.251
1301.609
1301.61
1279.429
1279.43
1254.792
1254.793
1227.838
1227.838
1198.741
1198.741
1167.701
1167.701
1134.926
1134.926
1100.619
1100.619
1064.974
1064.974
1028.163
1028.163
990.3358
990.3357
951.6147
951.6146
912.0925
912.0924
871.8329
871.8327
830.8715
830.8714
789.2164
789.2164
746.8508
746.851
703.7357
703.736
659.8131
659.8135
615.0102
615.0107
569.2437
569.2443
522.4268
522.4275
474.4786
474.4795
425.3408
425.3418
375.0098
375.0109
323.6009
323.602
271.4793
271.4803
219.5032
219.504
169.373
169.3736
123.8343
123.8347
86.08862
86.08882
58.11159
58.11173
39.32632
39.32641
27.34316
27.34322
19.68488
19.68491
14.63587
14.63588
11.18794
11.18795
8.767133
8.767139
7.02895
7.028955
5.76873
5.768736
4.836548
4.83655
4.18029
4.180289
3.643177
3.643172
3.43287
3.432864
3
3
3.086964
3.086961
)
;

boundaryField
{
    leftandright
    {
        type            cyclic;
        value           nonuniform List<scalar> 
150
(
1518.269
1517.702
1516.652
1515.115
1513.012
1510.228
1506.652
1502.248
1497.095
1491.407
1485.454
1479.344
1472.475
1464.064
1454.32
1444.318
1434.808
1426.123
1418.322
1411.283
1404.747
1398.356
1391.681
1384.252
1375.6
1365.292
1352.965
1338.343
1321.251
1301.61
1279.429
1254.793
1227.838
1198.741
1167.701
1134.926
1100.619
1064.974
1028.163
990.3358
951.6146
912.0925
871.8328
830.8714
789.2164
746.8509
703.7358
659.8133
615.0104
569.244
522.4272
474.4791
425.3413
375.0103
323.6014
271.4798
219.5036
169.3733
123.8345
86.08872
58.11166
39.32637
27.34319
19.6849
14.63588
11.18795
8.767136
7.028953
5.768733
4.836549
4.180289
3.643175
3.432867
3
3.086963
1518.269
1517.702
1516.652
1515.115
1513.012
1510.228
1506.652
1502.248
1497.095
1491.407
1485.454
1479.344
1472.475
1464.064
1454.32
1444.318
1434.808
1426.123
1418.322
1411.283
1404.747
1398.356
1391.681
1384.252
1375.6
1365.292
1352.965
1338.343
1321.251
1301.61
1279.429
1254.793
1227.838
1198.741
1167.701
1134.926
1100.619
1064.974
1028.163
990.3358
951.6146
912.0925
871.8328
830.8714
789.2164
746.8509
703.7358
659.8133
615.0104
569.244
522.4272
474.4791
425.3413
375.0103
323.6014
271.4798
219.5036
169.3733
123.8345
86.08872
58.11166
39.32637
27.34319
19.6849
14.63588
11.18795
8.767136
7.028953
5.768733
4.836549
4.180289
3.643175
3.432867
3
3.086963
)
;
    }
    wall
    {
        type            calculated;
        value           nonuniform List<scalar> 2(1518.269 1518.269);
    }
    frontAndBack
    {
        type            empty;
    }
    middle
    {
        type            symmetryPlane;
        value           nonuniform List<scalar> 2(3.086964 3.086961);
    }
}


// ************************************************************************* //
