/*--------------------------------*- C++ -*----------------------------------*\
| =========                 |                                                 |
| \\      /  F ield         | foam-extend: Open Source CFD                    |
|  \\    /   O peration     | Version:     4.0                                |
|   \\  /    A nd           | Web:         http://www.foam-extend.org         |
|    \\/     M anipulation  |                                                 |
\*---------------------------------------------------------------------------*/
FoamFile
{
    version     2.0;
    format      ascii;
    class       volVectorField;
    location    "100";
    object      U;
}
// * * * * * * * * * * * * * * * * * * * * * * * * * * * * * * * * * * * * * //

dimensions      [0 1 -1 0 0 0 0];

internalField   nonuniform List<vector> 
150
(
(0.1947079 6.141064e-07 0)
(0.1947079 6.138584e-07 0)
(0.5935398 1.69414e-06 0)
(0.5935398 1.693595e-06 0)
(1.01212 2.419602e-06 0)
(1.01212 2.419103e-06 0)
(1.451247 3.031962e-06 0)
(1.451247 3.031492e-06 0)
(1.911576 3.450683e-06 0)
(1.911576 3.450209e-06 0)
(2.39354 3.610585e-06 0)
(2.39354 3.610099e-06 0)
(2.89728 3.478227e-06 0)
(2.89728 3.477731e-06 0)
(3.422604 3.064088e-06 0)
(3.422604 3.063582e-06 0)
(3.969002 2.437198e-06 0)
(3.969002 2.436685e-06 0)
(4.5357 1.711601e-06 0)
(4.5357 1.711081e-06 0)
(5.121753 8.686896e-07 0)
(5.121753 8.681647e-07 0)
(5.726139 -9.33271e-07 0)
(5.726139 -9.338002e-07 0)
(6.34784 -3.421519e-06 0)
(6.34784 -3.42205e-06 0)
(6.982491 -4.630298e-06 0)
(6.982491 -4.630827e-06 0)
(7.62387 -4.952692e-06 0)
(7.62387 -4.953215e-06 0)
(8.268 -5.60643e-06 0)
(8.268 -5.606942e-06 0)
(8.911445 -6.275573e-06 0)
(8.911445 -6.276067e-06 0)
(9.550896 -6.679625e-06 0)
(9.550896 -6.680097e-06 0)
(10.18323 -6.756291e-06 0)
(10.18323 -6.756747e-06 0)
(10.80558 -6.509948e-06 0)
(10.80558 -6.510361e-06 0)
(11.41533 -5.970744e-06 0)
(11.41533 -5.971098e-06 0)
(12.01023 -5.191328e-06 0)
(12.01023 -5.191642e-06 0)
(12.58836 -4.240718e-06 0)
(12.58836 -4.24099e-06 0)
(13.14818 -3.193999e-06 0)
(13.14818 -3.194214e-06 0)
(13.68849 -2.122957e-06 0)
(13.68849 -2.123122e-06 0)
(14.20849 -1.089179e-06 0)
(14.20849 -1.089285e-06 0)
(14.70771 -1.402204e-07 0)
(14.70771 -1.402617e-07 0)
(15.18597 6.915559e-07 0)
(15.18597 6.915626e-07 0)
(15.6434 1.388531e-06 0)
(15.6434 1.38862e-06 0)
(16.08034 1.945642e-06 0)
(16.08034 1.945755e-06 0)
(16.49735 2.367107e-06 0)
(16.49735 2.367222e-06 0)
(16.89514 2.663799e-06 0)
(16.89514 2.663969e-06 0)
(17.27454 2.850697e-06 0)
(17.27454 2.850908e-06 0)
(17.63648 2.943917e-06 0)
(17.63648 2.944067e-06 0)
(17.98191 2.960405e-06 0)
(17.98191 2.960507e-06 0)
(18.31184 2.914754e-06 0)
(18.31184 2.915219e-06 0)
(18.6273 2.821047e-06 0)
(18.6273 2.821457e-06 0)
(18.92926 2.692566e-06 0)
(18.92926 2.692722e-06 0)
(19.21873 2.537601e-06 0)
(19.21873 2.537446e-06 0)
(19.49666 2.365347e-06 0)
(19.49666 2.365481e-06 0)
(19.76395 2.184344e-06 0)
(19.76395 2.184821e-06 0)
(20.02148 1.996761e-06 0)
(20.02148 1.997014e-06 0)
(20.27007 1.793903e-06 0)
(20.27007 1.794035e-06 0)
(20.51051 1.574013e-06 0)
(20.51051 1.574233e-06 0)
(20.74353 1.349749e-06 0)
(20.74353 1.350646e-06 0)
(20.9698 1.129657e-06 0)
(20.9698 1.130528e-06 0)
(21.18999 9.179015e-07 0)
(21.18999 9.191292e-07 0)
(21.40467 7.192138e-07 0)
(21.40467 7.202842e-07 0)
(21.61442 5.348645e-07 0)
(21.61442 5.35661e-07 0)
(21.81974 3.644509e-07 0)
(21.81974 3.654258e-07 0)
(22.02112 2.076211e-07 0)
(22.02112 2.087223e-07 0)
(22.21898 5.50277e-08 0)
(22.21898 5.603672e-08 0)
(22.41373 -1.154479e-07 0)
(22.41373 -1.149562e-07 0)
(22.60569 -3.551263e-07 0)
(22.60569 -3.546087e-07 0)
(22.79516 -7.704208e-07 0)
(22.79516 -7.705159e-07 0)
(22.98231 -1.508883e-06 0)
(22.98231 -1.509507e-06 0)
(23.16725 -2.573245e-06 0)
(23.16725 -2.574192e-06 0)
(23.34986 -3.341477e-06 0)
(23.34986 -3.342413e-06 0)
(23.52984 -2.43451e-06 0)
(23.52984 -2.43518e-06 0)
(23.70656 6.767734e-07 0)
(23.70656 6.761786e-07 0)
(23.8791 3.951238e-06 0)
(23.8791 3.950857e-06 0)
(24.04643 4.970301e-06 0)
(24.04643 4.969999e-06 0)
(24.20751 3.960018e-06 0)
(24.20751 3.959778e-06 0)
(24.36138 2.516067e-06 0)
(24.36138 2.515926e-06 0)
(24.50718 1.305166e-06 0)
(24.50718 1.305075e-06 0)
(24.64412 3.040979e-07 0)
(24.64412 3.040427e-07 0)
(24.77146 -8.309925e-07 0)
(24.77146 -8.310325e-07 0)
(24.88852 7.914101e-06 0)
(24.88852 7.914077e-06 0)
(24.99464 -8.127174e-06 0)
(24.99464 -8.127199e-06 0)
(25.08908 5.187347e-05 0)
(25.08908 5.187344e-05 0)
(25.17094 -0.000160085 0)
(25.17094 -0.000160085 0)
(25.23921 0.0005297833 0)
(25.23921 0.0005297832 0)
(25.29279 -0.001705995 0)
(25.29279 -0.001705995 0)
(25.33036 0.005225458 0)
(25.33036 0.005225458 0)
(25.35028 -0.01003869 0)
(25.35028 -0.01003869 0)
)
;

boundaryField
{
    leftandright
    {
        type            cyclic;
        value           nonuniform List<vector> 
150
(
(0.1947079 6.139824e-07 0)
(0.5935398 1.693868e-06 0)
(1.01212 2.419352e-06 0)
(1.451247 3.031727e-06 0)
(1.911576 3.450446e-06 0)
(2.39354 3.610342e-06 0)
(2.89728 3.477979e-06 0)
(3.422604 3.063835e-06 0)
(3.969002 2.436942e-06 0)
(4.5357 1.711341e-06 0)
(5.121753 8.684271e-07 0)
(5.726139 -9.335356e-07 0)
(6.34784 -3.421785e-06 0)
(6.982491 -4.630563e-06 0)
(7.62387 -4.952954e-06 0)
(8.268 -5.606686e-06 0)
(8.911445 -6.27582e-06 0)
(9.550896 -6.679861e-06 0)
(10.18323 -6.756519e-06 0)
(10.80558 -6.510154e-06 0)
(11.41533 -5.970921e-06 0)
(12.01023 -5.191485e-06 0)
(12.58836 -4.240854e-06 0)
(13.14818 -3.194107e-06 0)
(13.68849 -2.123039e-06 0)
(14.20849 -1.089232e-06 0)
(14.70771 -1.402411e-07 0)
(15.18597 6.915592e-07 0)
(15.6434 1.388575e-06 0)
(16.08034 1.945699e-06 0)
(16.49735 2.367165e-06 0)
(16.89514 2.663884e-06 0)
(17.27454 2.850803e-06 0)
(17.63648 2.943992e-06 0)
(17.98191 2.960456e-06 0)
(18.31184 2.914986e-06 0)
(18.6273 2.821252e-06 0)
(18.92926 2.692644e-06 0)
(19.21873 2.537524e-06 0)
(19.49666 2.365414e-06 0)
(19.76395 2.184583e-06 0)
(20.02148 1.996888e-06 0)
(20.27007 1.793969e-06 0)
(20.51051 1.574123e-06 0)
(20.74353 1.350198e-06 0)
(20.9698 1.130093e-06 0)
(21.18999 9.185154e-07 0)
(21.40467 7.19749e-07 0)
(21.61442 5.352628e-07 0)
(21.81974 3.649383e-07 0)
(22.02112 2.081717e-07 0)
(22.21898 5.553221e-08 0)
(22.41373 -1.15202e-07 0)
(22.60569 -3.548675e-07 0)
(22.79516 -7.704683e-07 0)
(22.98231 -1.509195e-06 0)
(23.16725 -2.573719e-06 0)
(23.34986 -3.341945e-06 0)
(23.52984 -2.434845e-06 0)
(23.70656 6.76476e-07 0)
(23.8791 3.951048e-06 0)
(24.04643 4.97015e-06 0)
(24.20751 3.959898e-06 0)
(24.36138 2.515996e-06 0)
(24.50718 1.305121e-06 0)
(24.64412 3.040703e-07 0)
(24.77146 -8.310125e-07 0)
(24.88852 7.914089e-06 0)
(24.99464 -8.127187e-06 0)
(25.08908 5.187346e-05 0)
(25.17094 -0.000160085 0)
(25.23921 0.0005297832 0)
(25.29279 -0.001705995 0)
(25.33036 0.005225458 0)
(25.35028 -0.01003869 0)
(0.1947079 6.139824e-07 0)
(0.5935398 1.693868e-06 0)
(1.01212 2.419352e-06 0)
(1.451247 3.031727e-06 0)
(1.911576 3.450446e-06 0)
(2.39354 3.610342e-06 0)
(2.89728 3.477979e-06 0)
(3.422604 3.063835e-06 0)
(3.969002 2.436942e-06 0)
(4.5357 1.711341e-06 0)
(5.121753 8.684271e-07 0)
(5.726139 -9.335356e-07 0)
(6.34784 -3.421785e-06 0)
(6.982491 -4.630563e-06 0)
(7.62387 -4.952954e-06 0)
(8.268 -5.606686e-06 0)
(8.911445 -6.27582e-06 0)
(9.550896 -6.679861e-06 0)
(10.18323 -6.756519e-06 0)
(10.80558 -6.510154e-06 0)
(11.41533 -5.970921e-06 0)
(12.01023 -5.191485e-06 0)
(12.58836 -4.240854e-06 0)
(13.14818 -3.194107e-06 0)
(13.68849 -2.123039e-06 0)
(14.20849 -1.089232e-06 0)
(14.70771 -1.402411e-07 0)
(15.18597 6.915592e-07 0)
(15.6434 1.388575e-06 0)
(16.08034 1.945699e-06 0)
(16.49735 2.367165e-06 0)
(16.89514 2.663884e-06 0)
(17.27454 2.850803e-06 0)
(17.63648 2.943992e-06 0)
(17.98191 2.960456e-06 0)
(18.31184 2.914986e-06 0)
(18.6273 2.821252e-06 0)
(18.92926 2.692644e-06 0)
(19.21873 2.537524e-06 0)
(19.49666 2.365414e-06 0)
(19.76395 2.184583e-06 0)
(20.02148 1.996888e-06 0)
(20.27007 1.793969e-06 0)
(20.51051 1.574123e-06 0)
(20.74353 1.350198e-06 0)
(20.9698 1.130093e-06 0)
(21.18999 9.185154e-07 0)
(21.40467 7.19749e-07 0)
(21.61442 5.352628e-07 0)
(21.81974 3.649383e-07 0)
(22.02112 2.081717e-07 0)
(22.21898 5.553221e-08 0)
(22.41373 -1.15202e-07 0)
(22.60569 -3.548675e-07 0)
(22.79516 -7.704683e-07 0)
(22.98231 -1.509195e-06 0)
(23.16725 -2.573719e-06 0)
(23.34986 -3.341945e-06 0)
(23.52984 -2.434845e-06 0)
(23.70656 6.76476e-07 0)
(23.8791 3.951048e-06 0)
(24.04643 4.97015e-06 0)
(24.20751 3.959898e-06 0)
(24.36138 2.515996e-06 0)
(24.50718 1.305121e-06 0)
(24.64412 3.040703e-07 0)
(24.77146 -8.310125e-07 0)
(24.88852 7.914089e-06 0)
(24.99464 -8.127187e-06 0)
(25.08908 5.187346e-05 0)
(25.17094 -0.000160085 0)
(25.23921 0.0005297832 0)
(25.29279 -0.001705995 0)
(25.33036 0.005225458 0)
(25.35028 -0.01003869 0)
)
;
    }
    wall
    {
        type            fixedValue;
        value           uniform (0 0 0);
    }
    frontAndBack
    {
        type            empty;
    }
    middle
    {
        type            symmetryPlane;
        value           nonuniform List<vector> 2((25.35028 0 0) (25.35028 0 0));
    }
}


// ************************************************************************* //
