/*--------------------------------*- C++ -*----------------------------------*\
| =========                 |                                                 |
| \\      /  F ield         | foam-extend: Open Source CFD                    |
|  \\    /   O peration     | Version:     4.0                                |
|   \\  /    A nd           | Web:         http://www.foam-extend.org         |
|    \\/     M anipulation  |                                                 |
\*---------------------------------------------------------------------------*/
FoamFile
{
    version     2.0;
    format      ascii;
    class       volScalarField;
    location    "100";
    object      v2;
}
// * * * * * * * * * * * * * * * * * * * * * * * * * * * * * * * * * * * * * //

dimensions      [0 2 -2 0 0 0 0];

internalField   nonuniform List<scalar> 
150
(
1.955733e-07
1.955733e-07
9.724554e-06
9.724556e-06
6.08468e-05
6.084681e-05
0.0002087426
0.0002087427
0.0005275629
0.000527563
0.001105938
0.001105939
0.002042005
0.002042005
0.003438223
0.003438223
0.005396482
0.005396482
0.008014059
0.00801406
0.01138094
0.01138094
0.01557867
0.01557867
0.02068077
0.02068078
0.02672221
0.02672221
0.03370059
0.0337006
0.04161393
0.04161394
0.05044737
0.05044738
0.06016813
0.06016813
0.07072593
0.07072594
0.08205473
0.08205474
0.09407534
0.09407535
0.1066988
0.1066988
0.1198303
0.1198303
0.1333727
0.1333727
0.1472299
0.1472299
0.1613099
0.1613099
0.1755269
0.1755269
0.1898028
0.1898028
0.204068
0.204068
0.2182616
0.2182616
0.2323311
0.2323311
0.246232
0.246232
0.2599267
0.2599267
0.2733836
0.2733836
0.286576
0.286576
0.299481
0.299481
0.3120786
0.3120786
0.3243508
0.3243508
0.336281
0.336281
0.3478533
0.3478533
0.3590525
0.3590525
0.3698636
0.3698636
0.380272
0.380272
0.3902636
0.3902636
0.3998231
0.3998231
0.4089332
0.4089332
0.417574
0.417574
0.4257224
0.4257224
0.4333522
0.4333522
0.4404336
0.4404336
0.4469334
0.4469334
0.4528149
0.4528149
0.4580383
0.4580383
0.4625604
0.4625604
0.4663356
0.4663355
0.4693155
0.4693155
0.4714505
0.4714504
0.4726909
0.4726909
0.4729908
0.4729908
0.472314
0.4723139
0.4706416
0.4706416
0.4679771
0.4679771
0.4643419
0.4643419
0.4597612
0.4597612
0.4542451
0.4542451
0.4477646
0.4477646
0.4402242
0.4402242
0.431426
0.431426
0.4214669
0.4214669
0.4110801
0.41108
0.4009563
0.4009563
0.3917422
0.3917422
0.3840355
0.3840355
0.3783874
0.3783874
0.3753076
0.3753076
)
;

boundaryField
{
    leftandright
    {
        type            cyclic;
        value           nonuniform List<scalar> 
150
(
1.955733e-07
9.724555e-06
6.084681e-05
0.0002087426
0.0005275629
0.001105939
0.002042005
0.003438223
0.005396482
0.008014059
0.01138094
0.01557867
0.02068078
0.02672221
0.03370059
0.04161393
0.05044738
0.06016813
0.07072594
0.08205474
0.09407534
0.1066988
0.1198303
0.1333727
0.1472299
0.1613099
0.1755269
0.1898028
0.204068
0.2182616
0.2323311
0.246232
0.2599267
0.2733836
0.286576
0.299481
0.3120786
0.3243508
0.336281
0.3478533
0.3590525
0.3698636
0.380272
0.3902636
0.3998231
0.4089332
0.417574
0.4257224
0.4333522
0.4404336
0.4469334
0.4528149
0.4580383
0.4625604
0.4663356
0.4693155
0.4714505
0.4726909
0.4729908
0.4723139
0.4706416
0.4679771
0.4643419
0.4597612
0.4542451
0.4477646
0.4402242
0.431426
0.4214669
0.4110801
0.4009563
0.3917422
0.3840355
0.3783874
0.3753076
1.955733e-07
9.724555e-06
6.084681e-05
0.0002087426
0.0005275629
0.001105939
0.002042005
0.003438223
0.005396482
0.008014059
0.01138094
0.01557867
0.02068078
0.02672221
0.03370059
0.04161393
0.05044738
0.06016813
0.07072594
0.08205474
0.09407534
0.1066988
0.1198303
0.1333727
0.1472299
0.1613099
0.1755269
0.1898028
0.204068
0.2182616
0.2323311
0.246232
0.2599267
0.2733836
0.286576
0.299481
0.3120786
0.3243508
0.336281
0.3478533
0.3590525
0.3698636
0.380272
0.3902636
0.3998231
0.4089332
0.417574
0.4257224
0.4333522
0.4404336
0.4469334
0.4528149
0.4580383
0.4625604
0.4663356
0.4693155
0.4714505
0.4726909
0.4729908
0.4723139
0.4706416
0.4679771
0.4643419
0.4597612
0.4542451
0.4477646
0.4402242
0.431426
0.4214669
0.4110801
0.4009563
0.3917422
0.3840355
0.3783874
0.3753076
)
;
    }
    wall
    {
        type            fixedValue;
        value           uniform 1e-10;
    }
    frontAndBack
    {
        type            empty;
    }
    middle
    {
        type            symmetryPlane;
        value           nonuniform List<scalar> 2(0.3753076 0.3753076);
    }
}


// ************************************************************************* //
