/*--------------------------------*- C++ -*----------------------------------*\
| =========                 |                                                 |
| \\      /  F ield         | foam-extend: Open Source CFD                    |
|  \\    /   O peration     | Version:     4.0                                |
|   \\  /    A nd           | Web:         http://www.foam-extend.org         |
|    \\/     M anipulation  |                                                 |
\*---------------------------------------------------------------------------*/
FoamFile
{
    version     2.0;
    format      ascii;
    class       volSymmTensorField;
    location    "100";
    object      C;
}
// * * * * * * * * * * * * * * * * * * * * * * * * * * * * * * * * * * * * * //

dimensions      [0 0 0 0 0 0 0];

internalField   nonuniform List<symmTensor> 
150
(
(499.872 10.70471 0 0.4534415 0 0.4479926)
(499.9043 10.70493 0 0.453421 0 0.4479724)
(498.1579 10.7263 0 0.456606 0 0.4500844)
(498.1653 10.72627 0 0.4565959 0 0.4500799)
(494.3079 10.8195 0 0.4677905 0 0.4547575)
(494.309 10.81948 0 0.4677869 0 0.4547567)
(487.3069 11.02933 0 0.4933877 0 0.4627042)
(487.3067 11.02932 0 0.493387 0 0.4627042)
(476.0236 11.36712 0 0.5402602 0 0.4745143)
(476.023 11.36712 0 0.5402607 0 0.4745147)
(460.7713 11.83908 0 0.6141951 0 0.4899353)
(460.7706 11.8391 0 0.6141962 0 0.4899358)
(443.3834 12.45006 0 0.7187498 0 0.5077579)
(443.3827 12.45009 0 0.7187513 0 0.5077584)
(425.549 13.19408 0 0.858005 0 0.526578)
(425.5484 13.19411 0 0.858007 0 0.5265784)
(408.1327 14.05006 0 1.036514 0 0.5453741)
(408.1321 14.0501 0 1.036516 0 0.5453745)
(391.5042 14.98934 0 1.258676 0 0.5635595)
(391.5037 14.98937 0 1.258679 0 0.5635597)
(375.7625 15.97944 0 1.528106 0 0.580874)
(375.7621 15.97947 0 1.52811 0 0.5808742)
(360.8643 16.98611 0 1.847046 0 0.5972663)
(360.8639 16.98614 0 1.84705 0 0.5972664)
(346.7 17.97516 0 2.215939 0 0.612801)
(346.6997 17.97519 0 2.215943 0 0.612801)
(333.1395 18.91432 0 2.633221 0 0.6275961)
(333.1393 18.91435 0 2.633225 0 0.6275961)
(320.0572 19.77484 0 3.095342 0 0.6417844)
(320.057 19.77485 0 3.095346 0 0.6417843)
(307.3442 20.53273 0 3.596992 0 0.6554914)
(307.3439 20.53274 0 3.596997 0 0.6554913)
(294.9125 21.16932 0 4.131442 0 0.6688253)
(294.9123 21.16934 0 4.131447 0 0.6688253)
(282.6943 21.67096 0 4.690697 0 0.6818755)
(282.694 21.67097 0 4.690702 0 0.6818754)
(270.6385 22.02844 0 5.265687 0 0.694713)
(270.6383 22.02845 0 5.265691 0 0.6947129)
(258.7078 22.2367 0 5.846513 0 0.707394)
(258.7077 22.23671 0 5.846517 0 0.7073938)
(246.8753 22.29425 0 6.422687 0 0.7199629)
(246.8751 22.29425 0 6.42269 0 0.7199628)
(235.1215 22.20261 0 6.98336 0 0.7324556)
(235.1214 22.20261 0 6.983363 0 0.7324556)
(223.432 21.9658 0 7.517556 0 0.7449018)
(223.4319 21.96581 0 7.517559 0 0.7449017)
(211.7964 21.5899 0 8.014378 0 0.7573259)
(211.7963 21.5899 0 8.014381 0 0.7573258)
(200.2073 21.08257 0 8.463218 0 0.7697486)
(200.2072 21.08257 0 8.463222 0 0.7697485)
(188.6603 20.45274 0 8.853955 0 0.7821865)
(188.6602 20.45274 0 8.853959 0 0.7821865)
(177.154 19.71033 0 9.177154 0 0.7946519)
(177.154 19.71033 0 9.177157 0 0.7946519)
(165.6906 18.86601 0 9.424259 0 0.8071523)
(165.6906 18.86603 0 9.424262 0 0.8071523)
(154.2766 17.93112 0 9.587811 0 0.8196887)
(154.2767 17.93112 0 9.587814 0 0.8196886)
(142.9242 16.91753 0 9.661693 0 0.8322545)
(142.9243 16.91753 0 9.661696 0 0.8322545)
(131.6523 15.83775 0 9.641412 0 0.8448335)
(131.6524 15.83775 0 9.641414 0 0.8448335)
(120.4895 14.70499 0 9.524447 0 0.857397)
(120.4895 14.705 0 9.524451 0 0.8573972)
(109.4756 13.53342 0 9.310693 0 0.8699006)
(109.4757 13.53342 0 9.310695 0 0.8699008)
(98.66493 12.3384 0 9.002971 0 0.8822808)
(98.66499 12.3384 0 9.002973 0 0.8822809)
(88.12901 11.13676 0 8.607605 0 0.894451)
(88.12908 11.13677 0 8.607612 0 0.8944512)
(77.95801 9.947001 0 8.135003 0 0.9062997)
(77.95808 9.947007 0 8.135007 0 0.9063)
(68.26006 8.789148 0 7.599978 0 0.9176908)
(68.26012 8.789153 0 7.599982 0 0.9176911)
(59.15598 7.684083 0 7.021619 0 0.9284695)
(59.15603 7.684088 0 7.021623 0 0.9284699)
(50.76811 6.652141 0 6.42229 0 0.938476)
(50.76816 6.652146 0 6.422294 0 0.9384761)
(43.20331 5.71098 0 5.825607 0 0.9475657)
(43.20334 5.710985 0 5.825612 0 0.9475659)
(36.53385 4.873197 0 5.253609 0 0.955634)
(36.53389 4.873201 0 5.253613 0 0.9556344)
(30.78266 4.144492 0 4.723845 0 0.9626356)
(30.78269 4.144496 0 4.723848 0 0.9626359)
(25.91919 3.523218 0 4.247421 0 0.9685908)
(25.91921 3.52322 0 4.247424 0 0.9685911)
(21.86805 3.001528 0 3.828671 0 0.9735774)
(21.86807 3.00153 0 3.828673 0 0.9735777)
(18.52629 2.567637 0 3.466349 0 0.9777105)
(18.52631 2.567639 0 3.466351 0 0.9777106)
(15.78188 2.208264 0 3.155617 0 0.9811194)
(15.78189 2.208264 0 3.155618 0 0.9811196)
(13.52804 1.910505 0 2.889972 0 0.9839304)
(13.52805 1.910506 0 2.889973 0 0.9839304)
(11.67111 1.662915 0 2.662646 0 0.9862553)
(11.67112 1.662916 0 2.662647 0 0.9862554)
(10.13311 1.455883 0 2.467388 0 0.9881883)
(10.1331 1.455884 0 2.467389 0 0.9881884)
(8.851035 1.281598 0 2.298781 0 0.9898059)
(8.851036 1.281598 0 2.298781 0 0.9898058)
(7.774955 1.133827 0 2.152296 0 0.9911687)
(7.774957 1.133827 0 2.152295 0 0.9911687)
(6.865475 1.007624 0 2.024215 0 0.9923252)
(6.865476 1.007623 0 2.024215 0 0.9923252)
(6.091592 0.8990768 0 1.911515 0 0.9933132)
(6.091593 0.8990768 0 1.911515 0 0.9933132)
(5.42886 0.8050815 0 1.811737 0 0.9941628)
(5.428861 0.8050814 0 1.811737 0 0.9941628)
(4.858018 0.7231785 0 1.722912 0 0.9948979)
(4.858019 0.7231785 0 1.722912 0 0.9948978)
(4.363569 0.651378 0 1.643387 0 0.9955373)
(4.363569 0.651378 0 1.643387 0 0.9955372)
(3.932395 0.5879843 0 1.571656 0 0.9960975)
(3.932395 0.5879844 0 1.571656 0 0.9960975)
(3.554524 0.5316607 0 1.506789 0 0.9965907)
(3.554524 0.5316606 0 1.506788 0 0.9965906)
(3.221425 0.4812329 0 1.44794 0 0.9970273)
(3.221425 0.4812329 0 1.447941 0 0.9970272)
(2.925988 0.4357018 0 1.394335 0 0.997416)
(2.925989 0.4357018 0 1.394335 0 0.997416)
(2.66257 0.3942479 0 1.345342 0 0.997764)
(2.66257 0.3942479 0 1.345342 0 0.997764)
(2.426663 0.3561895 0 1.300446 0 0.9980767)
(2.426663 0.3561895 0 1.300446 0 0.9980767)
(2.214674 0.3209537 0 1.259227 0 0.9983586)
(2.214674 0.3209537 0 1.259227 0 0.9983586)
(2.023771 0.2880572 0 1.22135 0 0.9986134)
(2.023771 0.2880572 0 1.22135 0 0.9986134)
(1.851783 0.257096 0 1.186563 0 0.9988437)
(1.851784 0.2570961 0 1.186563 0 0.9988437)
(1.697088 0.2277361 0 1.154679 0 0.9990512)
(1.697089 0.2277362 0 1.154679 0 0.9990514)
(1.558673 0.1997217 0 1.125623 0 0.9992375)
(1.558675 0.1997219 0 1.125624 0 0.9992379)
(1.435624 0.1728447 0 1.099268 0 0.9994037)
(1.435625 0.1728449 0 1.099268 0 0.9994041)
(1.328515 0.1470443 0 1.075972 0 0.9995487)
(1.328515 0.1470445 0 1.075972 0 0.9995493)
(1.234584 0.1221148 0 1.054797 0 0.9996771)
(1.234584 0.1221148 0 1.054797 0 0.9996775)
(1.1619 0.09843865 0 1.038974 0 0.9997765)
(1.1619 0.09843834 0 1.038973 0 0.9997765)
(1.087105 0.07505792 0 1.01947 0 0.9998827)
(1.087106 0.07505721 0 1.019469 0 0.9998819)
(1.076948 0.05398585 0 1.022909 0 0.9998892)
(1.07695 0.05398605 0 1.022909 0 0.9998872)
(0.9756792 0.03130427 0 0.9874045 0 0.9999997)
(0.9756786 0.03130472 0 0.9874046 0 1)
(1.025744 0.01078359 0 1.009994 0 0.9999606)
(1.025742 0.01078335 0 1.009994 0 0.9999596)
)
;

boundaryField
{
    leftandright
    {
        type            cyclic;
        value           nonuniform List<symmTensor> 
150
(
(499.8882 10.70482 0 0.4534312 0 0.4479825)
(498.1616 10.72629 0 0.4566009 0 0.4500821)
(494.3085 10.81949 0 0.4677887 0 0.4547571)
(487.3068 11.02932 0 0.4933873 0 0.4627042)
(476.0233 11.36712 0 0.5402605 0 0.4745145)
(460.771 11.83909 0 0.6141957 0 0.4899355)
(443.3831 12.45008 0 0.7187505 0 0.5077582)
(425.5487 13.19409 0 0.858006 0 0.5265782)
(408.1324 14.05008 0 1.036515 0 0.5453743)
(391.504 14.98936 0 1.258678 0 0.5635596)
(375.7623 15.97945 0 1.528108 0 0.5808741)
(360.8641 16.98613 0 1.847048 0 0.5972663)
(346.6998 17.97518 0 2.215941 0 0.612801)
(333.1394 18.91434 0 2.633223 0 0.6275961)
(320.0571 19.77485 0 3.095344 0 0.6417843)
(307.344 20.53273 0 3.596995 0 0.6554913)
(294.9124 21.16933 0 4.131444 0 0.6688253)
(282.6942 21.67097 0 4.690699 0 0.6818755)
(270.6384 22.02844 0 5.265689 0 0.694713)
(258.7077 22.2367 0 5.846515 0 0.7073939)
(246.8752 22.29425 0 6.422688 0 0.7199629)
(235.1214 22.20261 0 6.983362 0 0.7324556)
(223.4319 21.96581 0 7.517558 0 0.7449017)
(211.7963 21.5899 0 8.014379 0 0.7573258)
(200.2073 21.08257 0 8.46322 0 0.7697486)
(188.6603 20.45274 0 8.853957 0 0.7821865)
(177.154 19.71033 0 9.177156 0 0.7946519)
(165.6906 18.86602 0 9.42426 0 0.8071523)
(154.2766 17.93112 0 9.587813 0 0.8196886)
(142.9242 16.91753 0 9.661694 0 0.8322545)
(131.6524 15.83775 0 9.641413 0 0.8448335)
(120.4895 14.705 0 9.524449 0 0.8573971)
(109.4756 13.53342 0 9.310694 0 0.8699007)
(98.66496 12.3384 0 9.002972 0 0.8822808)
(88.12905 11.13677 0 8.607609 0 0.8944511)
(77.95804 9.947004 0 8.135005 0 0.9062999)
(68.26009 8.78915 0 7.59998 0 0.917691)
(59.15601 7.684086 0 7.021621 0 0.9284697)
(50.76813 6.652143 0 6.422292 0 0.9384761)
(43.20332 5.710982 0 5.82561 0 0.9475658)
(36.53387 4.873199 0 5.253611 0 0.9556342)
(30.78268 4.144494 0 4.723846 0 0.9626357)
(25.9192 3.523219 0 4.247422 0 0.968591)
(21.86806 3.001529 0 3.828672 0 0.9735775)
(18.5263 2.567638 0 3.46635 0 0.9777105)
(15.78188 2.208264 0 3.155617 0 0.9811195)
(13.52805 1.910506 0 2.889972 0 0.9839304)
(11.67112 1.662916 0 2.662647 0 0.9862553)
(10.13311 1.455883 0 2.467388 0 0.9881884)
(8.851036 1.281598 0 2.298781 0 0.9898059)
(7.774956 1.133827 0 2.152295 0 0.9911687)
(6.865475 1.007623 0 2.024215 0 0.9923252)
(6.091592 0.8990768 0 1.911515 0 0.9933132)
(5.428861 0.8050814 0 1.811737 0 0.9941628)
(4.858019 0.7231785 0 1.722912 0 0.9948978)
(4.363569 0.651378 0 1.643387 0 0.9955373)
(3.932395 0.5879843 0 1.571656 0 0.9960975)
(3.554524 0.5316607 0 1.506788 0 0.9965906)
(3.221425 0.4812329 0 1.44794 0 0.9970272)
(2.925989 0.4357018 0 1.394335 0 0.997416)
(2.66257 0.3942479 0 1.345342 0 0.997764)
(2.426663 0.3561895 0 1.300446 0 0.9980767)
(2.214674 0.3209537 0 1.259227 0 0.9983586)
(2.023771 0.2880572 0 1.22135 0 0.9986134)
(1.851784 0.2570961 0 1.186563 0 0.9988437)
(1.697089 0.2277361 0 1.154679 0 0.9990513)
(1.558674 0.1997218 0 1.125623 0 0.9992377)
(1.435625 0.1728448 0 1.099268 0 0.9994039)
(1.328515 0.1470444 0 1.075972 0 0.999549)
(1.234584 0.1221148 0 1.054797 0 0.9996773)
(1.1619 0.0984385 0 1.038974 0 0.9997765)
(1.087105 0.07505756 0 1.019469 0 0.9998823)
(1.076949 0.05398595 0 1.022909 0 0.9998882)
(0.9756789 0.03130449 0 0.9874045 0 0.9999999)
(1.025743 0.01078347 0 1.009994 0 0.9999601)
(499.8882 10.70482 0 0.4534312 0 0.4479825)
(498.1616 10.72629 0 0.4566009 0 0.4500821)
(494.3085 10.81949 0 0.4677887 0 0.4547571)
(487.3068 11.02932 0 0.4933873 0 0.4627042)
(476.0233 11.36712 0 0.5402605 0 0.4745145)
(460.771 11.83909 0 0.6141957 0 0.4899355)
(443.3831 12.45008 0 0.7187505 0 0.5077582)
(425.5487 13.19409 0 0.858006 0 0.5265782)
(408.1324 14.05008 0 1.036515 0 0.5453743)
(391.504 14.98936 0 1.258678 0 0.5635596)
(375.7623 15.97945 0 1.528108 0 0.5808741)
(360.8641 16.98613 0 1.847048 0 0.5972663)
(346.6998 17.97518 0 2.215941 0 0.612801)
(333.1394 18.91434 0 2.633223 0 0.6275961)
(320.0571 19.77485 0 3.095344 0 0.6417843)
(307.344 20.53273 0 3.596995 0 0.6554913)
(294.9124 21.16933 0 4.131444 0 0.6688253)
(282.6942 21.67097 0 4.690699 0 0.6818755)
(270.6384 22.02844 0 5.265689 0 0.694713)
(258.7077 22.2367 0 5.846515 0 0.7073939)
(246.8752 22.29425 0 6.422688 0 0.7199629)
(235.1214 22.20261 0 6.983362 0 0.7324556)
(223.4319 21.96581 0 7.517558 0 0.7449017)
(211.7963 21.5899 0 8.014379 0 0.7573258)
(200.2073 21.08257 0 8.46322 0 0.7697486)
(188.6603 20.45274 0 8.853957 0 0.7821865)
(177.154 19.71033 0 9.177156 0 0.7946519)
(165.6906 18.86602 0 9.42426 0 0.8071523)
(154.2766 17.93112 0 9.587813 0 0.8196886)
(142.9242 16.91753 0 9.661694 0 0.8322545)
(131.6524 15.83775 0 9.641413 0 0.8448335)
(120.4895 14.705 0 9.524449 0 0.8573971)
(109.4756 13.53342 0 9.310694 0 0.8699007)
(98.66496 12.3384 0 9.002972 0 0.8822808)
(88.12905 11.13677 0 8.607609 0 0.8944511)
(77.95804 9.947004 0 8.135005 0 0.9062999)
(68.26009 8.78915 0 7.59998 0 0.917691)
(59.15601 7.684086 0 7.021621 0 0.9284697)
(50.76813 6.652143 0 6.422292 0 0.9384761)
(43.20332 5.710982 0 5.82561 0 0.9475658)
(36.53387 4.873199 0 5.253611 0 0.9556342)
(30.78268 4.144494 0 4.723846 0 0.9626357)
(25.9192 3.523219 0 4.247422 0 0.968591)
(21.86806 3.001529 0 3.828672 0 0.9735775)
(18.5263 2.567638 0 3.46635 0 0.9777105)
(15.78188 2.208264 0 3.155617 0 0.9811195)
(13.52805 1.910506 0 2.889972 0 0.9839304)
(11.67112 1.662916 0 2.662647 0 0.9862553)
(10.13311 1.455883 0 2.467388 0 0.9881884)
(8.851036 1.281598 0 2.298781 0 0.9898059)
(7.774956 1.133827 0 2.152295 0 0.9911687)
(6.865475 1.007623 0 2.024215 0 0.9923252)
(6.091592 0.8990768 0 1.911515 0 0.9933132)
(5.428861 0.8050814 0 1.811737 0 0.9941628)
(4.858019 0.7231785 0 1.722912 0 0.9948978)
(4.363569 0.651378 0 1.643387 0 0.9955373)
(3.932395 0.5879843 0 1.571656 0 0.9960975)
(3.554524 0.5316607 0 1.506788 0 0.9965906)
(3.221425 0.4812329 0 1.44794 0 0.9970272)
(2.925989 0.4357018 0 1.394335 0 0.997416)
(2.66257 0.3942479 0 1.345342 0 0.997764)
(2.426663 0.3561895 0 1.300446 0 0.9980767)
(2.214674 0.3209537 0 1.259227 0 0.9983586)
(2.023771 0.2880572 0 1.22135 0 0.9986134)
(1.851784 0.2570961 0 1.186563 0 0.9988437)
(1.697089 0.2277361 0 1.154679 0 0.9990513)
(1.558674 0.1997218 0 1.125623 0 0.9992377)
(1.435625 0.1728448 0 1.099268 0 0.9994039)
(1.328515 0.1470444 0 1.075972 0 0.999549)
(1.234584 0.1221148 0 1.054797 0 0.9996773)
(1.1619 0.0984385 0 1.038974 0 0.9997765)
(1.087105 0.07505756 0 1.019469 0 0.9998823)
(1.076949 0.05398595 0 1.022909 0 0.9998882)
(0.9756789 0.03130449 0 0.9874045 0 0.9999999)
(1.025743 0.01078347 0 1.009994 0 0.9999601)
)
;
    }
    wall
    {
        type            zeroGradient;
    }
    frontAndBack
    {
        type            empty;
    }
    middle
    {
        type            symmetryPlane;
        value           nonuniform List<symmTensor> 2((1.025744 0 0 1.009994 0 0.9999606) (1.025742 0 0 1.009994 0 0.9999596));
    }
}


// ************************************************************************* //
