/*--------------------------------*- C++ -*----------------------------------*\
| =========                 |                                                 |
| \\      /  F ield         | foam-extend: Open Source CFD                    |
|  \\    /   O peration     | Version:     4.0                                |
|   \\  /    A nd           | Web:         http://www.foam-extend.org         |
|    \\/     M anipulation  |                                                 |
\*---------------------------------------------------------------------------*/
FoamFile
{
    version     2.0;
    format      ascii;
    class       volScalarField;
    location    "100";
    object      Ceps1;
}
// * * * * * * * * * * * * * * * * * * * * * * * * * * * * * * * * * * * * * //

dimensions      [0 0 0 0 0 0 0];

internalField   nonuniform List<scalar> 
150
(
3.682851
3.682851
2.493374
2.493374
2.176277
2.176276
2.034353
2.034353
1.953222
1.953222
1.896959
1.896959
1.852599
1.852599
1.815522
1.815522
1.78377
1.78377
1.756285
1.756285
1.732353
1.732353
1.711424
1.711424
1.693046
1.693046
1.67684
1.67684
1.662483
1.662483
1.6497
1.6497
1.638257
1.638257
1.627961
1.627961
1.618652
1.618652
1.610198
1.610198
1.602489
1.602489
1.595436
1.595436
1.58896
1.58896
1.582998
1.582998
1.577493
1.577493
1.572399
1.572399
1.567674
1.567674
1.563282
1.563282
1.559193
1.559193
1.555379
1.555379
1.551816
1.551816
1.548482
1.548482
1.545358
1.545358
1.542427
1.542427
1.539673
1.539673
1.537082
1.537082
1.534641
1.534641
1.532339
1.532339
1.530165
1.530165
1.52811
1.52811
1.526165
1.526165
1.524322
1.524322
1.522575
1.522575
1.520916
1.520916
1.519342
1.519342
1.517847
1.517847
1.516427
1.516427
1.515077
1.515077
1.513796
1.513796
1.512579
1.512579
1.511424
1.511424
1.51033
1.51033
1.509295
1.509295
1.50832
1.50832
1.507405
1.507405
1.506553
1.506553
1.50577
1.50577
1.505048
1.505048
1.504376
1.504376
1.503746
1.503746
1.503149
1.503149
1.502577
1.502577
1.502023
1.502023
1.501479
1.501479
1.50094
1.50094
1.5004
1.5004
1.499855
1.499855
1.499305
1.499305
1.498752
1.498752
1.498205
1.498205
1.497679
1.497679
1.497195
1.497195
1.496782
1.496782
1.496473
1.496473
1.496302
1.496302
)
;

boundaryField
{
    leftandright
    {
        type            cyclic;
        value           nonuniform List<scalar> 
150
(
3.682851
2.493374
2.176277
2.034353
1.953222
1.896959
1.852599
1.815522
1.78377
1.756285
1.732353
1.711424
1.693046
1.67684
1.662483
1.6497
1.638257
1.627961
1.618652
1.610198
1.602489
1.595436
1.58896
1.582998
1.577493
1.572399
1.567674
1.563282
1.559193
1.555379
1.551816
1.548482
1.545358
1.542427
1.539673
1.537082
1.534641
1.532339
1.530165
1.52811
1.526165
1.524322
1.522575
1.520916
1.519342
1.517847
1.516427
1.515077
1.513796
1.512579
1.511424
1.51033
1.509295
1.50832
1.507405
1.506553
1.50577
1.505048
1.504376
1.503746
1.503149
1.502577
1.502023
1.501479
1.50094
1.5004
1.499855
1.499305
1.498752
1.498205
1.497679
1.497195
1.496782
1.496473
1.496302
3.682851
2.493374
2.176277
2.034353
1.953222
1.896959
1.852599
1.815522
1.78377
1.756285
1.732353
1.711424
1.693046
1.67684
1.662483
1.6497
1.638257
1.627961
1.618652
1.610198
1.602489
1.595436
1.58896
1.582998
1.577493
1.572399
1.567674
1.563282
1.559193
1.555379
1.551816
1.548482
1.545358
1.542427
1.539673
1.537082
1.534641
1.532339
1.530165
1.52811
1.526165
1.524322
1.522575
1.520916
1.519342
1.517847
1.516427
1.515077
1.513796
1.512579
1.511424
1.51033
1.509295
1.50832
1.507405
1.506553
1.50577
1.505048
1.504376
1.503746
1.503149
1.502577
1.502023
1.501479
1.50094
1.5004
1.499855
1.499305
1.498752
1.498205
1.497679
1.497195
1.496782
1.496473
1.496302
)
;
    }
    wall
    {
        type            calculated;
        value           uniform 1.463;
    }
    frontAndBack
    {
        type            empty;
    }
    middle
    {
        type            symmetryPlane;
        value           nonuniform List<scalar> 2(1.496302 1.496302);
    }
}


// ************************************************************************* //
