/*--------------------------------*- C++ -*----------------------------------*\
| =========                 |                                                 |
| \\      /  F ield         | foam-extend: Open Source CFD                    |
|  \\    /   O peration     | Version:     4.0                                |
|   \\  /    A nd           | Web:         http://www.foam-extend.org         |
|    \\/     M anipulation  |                                                 |
\*---------------------------------------------------------------------------*/
FoamFile
{
    version     2.0;
    format      ascii;
    class       volSymmTensorField;
    location    "100";
    object      DiffC;
}
// * * * * * * * * * * * * * * * * * * * * * * * * * * * * * * * * * * * * * //

dimensions      [0 0 -1 0 0 0 0];

internalField   nonuniform List<symmTensor> 
150
(
(-107.7703 1.357947 0 0.1989698 0 0.1315237)
(-109.3468 1.341887 0 0.1996263 0 0.1325127)
(-116.5694 4.011854 0 0.4472111 0 0.140816)
(-115.4339 4.028151 0 0.4469607 0 0.1400929)
(-152.1699 5.762338 0 0.7129446 0 0.1563163)
(-151.8975 5.761707 0 0.7127437 0 0.1561556)
(-182.967 5.465913 0 0.9308971 0 0.1611822)
(-182.9191 5.466095 0 0.9308112 0 0.1611575)
(-143.1459 4.933059 0 1.040876 0 0.1268997)
(-143.1348 4.933244 0 1.040848 0 0.1268905)
(-51.79123 4.388312 0 1.025146 0 0.06162481)
(-51.7841 4.388033 0 1.025139 0 0.06161618)
(15.28807 3.519327 0 1.014836 0 0.00298668)
(15.28856 3.519025 0 1.014834 0 0.002986809)
(41.60273 2.313578 0 1.005506 0 -0.03084663)
(41.60147 2.313775 0 1.005509 0 -0.03084614)
(47.52483 1.119797 0 0.9778726 0 -0.04450569)
(47.5273 1.119323 0 0.9778717 0 -0.0445074)
(44.51566 0.07197412 0 0.9205335 0 -0.04614774)
(44.5142 0.0721556 0 0.9205282 0 -0.04614597)
(38.23497 -0.789498 0 0.8291427 0 -0.04192834)
(38.2347 -0.7895001 0 0.8291407 0 -0.04192934)
(31.40285 -1.450519 0 0.7066307 0 -0.03560374)
(31.4043 -1.450522 0 0.7066322 0 -0.03560251)
(25.23765 -1.90911 0 0.5613521 0 -0.02914783)
(25.23601 -1.909127 0 0.5613379 0 -0.0291473)
(20.14946 -2.178663 0 0.4044224 0 -0.02344802)
(20.14916 -2.178809 0 0.4044244 0 -0.02344797)
(16.16018 -2.282832 0 0.2477238 0 -0.01878582)
(16.15905 -2.282685 0 0.2477354 0 -0.01878663)
(13.12344 -2.255271 0 0.1008829 0 -0.01513091)
(13.12581 -2.255275 0 0.1008724 0 -0.01512915)
(10.82859 -2.136576 0 -0.03204936 0 -0.01231291)
(10.82646 -2.136572 0 -0.03204866 0 -0.01231444)
(9.084238 -1.96035 0 -0.148349 0 -0.01015651)
(9.086225 -1.960358 0 -0.1483603 0 -0.01015585)
(7.74737 -1.750163 0 -0.2461345 0 -0.008493029)
(7.746413 -1.750256 0 -0.2461324 0 -0.00849281)
(6.695639 -1.526213 0 -0.3247989 0 -0.00718972)
(6.695692 -1.526121 0 -0.3247946 0 -0.007189616)
(5.851922 -1.302343 0 -0.3847991 0 -0.006152791)
(5.851937 -1.302342 0 -0.3847998 0 -0.006151396)
(5.152481 -1.088457 0 -0.4272051 0 -0.005308019)
(5.153183 -1.088456 0 -0.427207 0 -0.005310041)
(4.568927 -0.8906306 0 -0.4536004 0 -0.004615802)
(4.567642 -0.8906288 0 -0.4535977 0 -0.004615635)
(4.069766 -0.7123013 0 -0.4657562 0 -0.004040307)
(4.070935 -0.7123028 0 -0.4657597 0 -0.004039306)
(3.645584 -0.5548208 0 -0.4656281 0 -0.003560268)
(3.644524 -0.5548191 0 -0.4656262 0 -0.003560632)
(3.280319 -0.4180201 0 -0.4550613 0 -0.003163258)
(3.281295 -0.4180216 0 -0.4550679 0 -0.003163363)
(2.970457 -0.301006 0 -0.4359046 0 -0.002834228)
(2.970024 -0.3009607 0 -0.4358965 0 -0.002834186)
(2.706176 -0.2020299 0 -0.4097415 0 -0.002568435)
(2.706527 -0.2021148 0 -0.409747 0 -0.002568836)
(2.487386 -0.1191973 0 -0.3779877 0 -0.002357356)
(2.486647 -0.1191587 0 -0.377986 0 -0.002356587)
(2.305726 -0.0501917 0 -0.3418006 0 -0.002195327)
(2.306382 -0.05019255 0 -0.3418053 0 -0.002195713)
(2.164479 0.006981859 0 -0.3021264 0 -0.002079897)
(2.163868 0.00701282 0 -0.3021171 0 -0.002079581)
(2.05702 0.05457934 0 -0.2596326 0 -0.002007139)
(2.057543 0.05452053 0 -0.2596426 0 -0.002007491)
(1.982853 0.0942781 0 -0.2148906 0 -0.001973335)
(1.98244 0.09430415 0 -0.2148873 0 -0.001973569)
(1.937646 0.1275557 0 -0.1684383 0 -0.001973863)
(1.937805 0.1275785 0 -0.1684291 0 -0.001973474)
(1.915249 0.155397 0 -0.1208961 0 -0.002000185)
(1.915207 0.155363 0 -0.1209112 0 -0.002000234)
(1.905183 0.1779035 0 -0.07342468 0 -0.002040165)
(1.905176 0.1779125 0 -0.07342118 0 -0.002040412)
(1.89227 0.1944597 0 -0.02776365 0 -0.002074615)
(1.892244 0.194459 0 -0.02776418 0 -0.002074683)
(1.857265 0.2037286 0 0.0135052 0 -0.002079904)
(1.857287 0.2037277 0 0.01350448 0 -0.00208026)
(1.781006 0.2042027 0 0.04734942 0 -0.002031972)
(1.780956 0.204202 0 0.04735001 0 -0.002031604)
(1.650893 0.1950716 0 0.0710614 0 -0.001913533)
(1.650913 0.1950695 0 0.07105832 0 -0.001913593)
(1.467611 0.1770467 0 0.0833017 0 -0.001723946)
(1.467606 0.1770473 0 0.08330129 0 -0.001724231)
(1.246613 0.1526274 0 0.08483815 0 -0.001481433)
(1.246597 0.1526248 0 0.08483831 0 -0.001481282)
(1.013015 0.1254079 0 0.07832112 0 -0.001215507)
(1.013022 0.1254096 0 0.07832021 0 -0.00121566)
(0.792019 0.09892447 0 0.06726511 0 -0.0009578359)
(0.7920157 0.09892419 0 0.06726554 0 -0.0009580509)
(0.6008828 0.07563801 0 0.05484126 0 -0.0007316786)
(0.600872 0.07563696 0 0.0548402 0 -0.0007314737)
(0.4466432 0.05662843 0 0.04316712 0 -0.0005467589)
(0.4466491 0.05662906 0 0.04316769 0 -0.0005469235)
(0.3281659 0.04190195 0 0.03325704 0 -0.0004035202)
(0.3281643 0.04190182 0 0.03325687 0 -0.0004034082)
(0.2400331 0.03086388 0 0.02533847 0 -0.0002961805)
(0.240026 0.03086376 0 0.02533832 0 -0.0002963107)
(0.1756292 0.02274736 0 0.01923064 0 -0.0002175069)
(0.1756356 0.02274672 0 0.01922996 0 -0.0002175063)
(0.129016 0.01683083 0 0.01460657 0 -0.0001603634)
(0.1290148 0.01683135 0 0.01460706 0 -0.0001602562)
(0.09530399 0.01252375 0 0.01113535 0 -0.0001186492)
(0.09530374 0.01252377 0 0.01113535 0 -0.0001186881)
(0.07087868 0.009384223 0 0.008535348 0 -8.860363e-05)
(0.07087809 0.009384283 0 0.008535363 0 -8.859976e-05)
(0.05309742 0.007081561 0 0.006582106 0 -6.655758e-05)
(0.05309765 0.007081486 0 0.006582097 0 -6.655369e-05)
(0.04010529 0.005388237 0 0.005119492 0 -5.039786e-05)
(0.04010519 0.005388281 0 0.005119507 0 -5.039433e-05)
(0.03047097 0.004124184 0 0.003994475 0 -3.843774e-05)
(0.03047057 0.004124192 0 0.003994486 0 -3.843459e-05)
(0.02313252 0.003154962 0 0.003097958 0 -2.923127e-05)
(0.02313283 0.003154994 0 0.003097975 0 -2.922821e-05)
(0.01781488 0.002437927 0 0.002490043 0 -2.261604e-05)
(0.0178149 0.002437867 0 0.002489849 0 -2.263443e-05)
(0.01371555 0.001877931 0 0.001997546 0 -1.751883e-05)
(0.01371558 0.001877983 0 0.001998263 0 -1.747755e-05)
(0.0105934 0.001447837 0 0.001598488 0 -1.36117e-05)
(0.0105936 0.001447781 0 0.001597841 0 -1.357107e-05)
(0.008261355 0.001122857 0 0.001288981 0 -1.062539e-05)
(0.008260866 0.001122881 0 0.001289153 0 -1.063283e-05)
(0.006502529 0.000875078 0 0.001047541 0 -8.429551e-06)
(0.006502687 0.0008750808 0 0.001047549 0 -8.417695e-06)
(0.005167268 0.0006848163 0 0.0008577233 0 -6.725384e-06)
(0.005167255 0.0006848193 0 0.0008577268 0 -6.71283e-06)
(0.004149827 0.0005382549 0 0.000708345 0 -5.402941e-06)
(0.004149802 0.0005382573 0 0.0007083432 0 -5.392121e-06)
(0.003373977 0.000425577 0 0.0005913929 0 -4.419831e-06)
(0.003373934 0.0004255768 0 0.0005913841 0 -4.413732e-06)
(0.002777914 0.000339073 0 0.0004985765 0 -3.672513e-06)
(0.002777859 0.0003390701 0 0.0004985604 0 -3.663656e-06)
(0.00233153 0.000274366 0 0.0004297514 0 -3.058398e-06)
(0.002331556 0.0002743677 0 0.0004297249 0 -3.084004e-06)
(0.001958001 0.0002241787 0 0.0003651997 0 -2.560146e-06)
(0.001957673 0.0002241396 0 0.0003651622 0 -2.620936e-06)
(0.001755627 0.0001935305 0 0.0003479851 0 -2.303974e-06)
(0.001755315 0.0001934942 0 0.0003479502 0 -2.369817e-06)
(0.001333196 0.0001565106 0 0.0002367037 0 -1.671023e-06)
(0.001333244 0.0001564653 0 0.0002366815 0 -1.794937e-06)
(0.001685094 0.0001635293 0 0.0004162381 0 -2.26274e-06)
(0.001685188 0.0001635143 0 0.0004161961 0 -2.347446e-06)
(9.382151e-05 8.813032e-05 0 -0.0001682877 0 1.021673e-07)
(9.409957e-05 8.817883e-05 0 -0.0001679981 0 7.668702e-08)
(0.003628454 0.0001856352 0 0.001268842 0 -5.643904e-06)
(0.003628254 0.0001858189 0 0.001268818 0 -5.51908e-06)
(-0.004345505 -2.552625e-05 0 -0.001876606 0 4.811044e-06)
(-0.004346076 -2.559033e-05 0 -0.001876571 0 5.314772e-06)
(0.006795239 0.0001441926 0 0.002601138 0 -6.691426e-06)
(0.006795379 0.0001440777 0 0.00260107 0 -6.969612e-06)
(-0.002068197 -2.158552e-05 0 -0.000933166 0 1.539554e-06)
(-0.002067729 -2.149953e-05 0 -0.0009330067 0 1.753916e-06)
)
;

boundaryField
{
    leftandright
    {
        type            cyclic;
        value           nonuniform List<symmTensor> 
150
(
(-108.5585 1.349917 0 0.199298 0 0.1320182)
(-116.0017 4.020002 0 0.4470859 0 0.1404545)
(-152.0337 5.762023 0 0.7128442 0 0.1562359)
(-182.9431 5.466004 0 0.9308541 0 0.1611698)
(-143.1404 4.933151 0 1.040862 0 0.1268951)
(-51.78767 4.388172 0 1.025142 0 0.06162049)
(15.28832 3.519176 0 1.014835 0 0.002986745)
(41.6021 2.313676 0 1.005508 0 -0.03084639)
(47.52606 1.11956 0 0.9778722 0 -0.04450654)
(44.51493 0.07206486 0 0.9205308 0 -0.04614686)
(38.23483 -0.7894991 0 0.8291417 0 -0.04192884)
(31.40358 -1.450521 0 0.7066314 0 -0.03560313)
(25.23683 -1.909118 0 0.561345 0 -0.02914757)
(20.14931 -2.178736 0 0.4044234 0 -0.02344799)
(16.15962 -2.282759 0 0.2477296 0 -0.01878623)
(13.12462 -2.255273 0 0.1008777 0 -0.01513003)
(10.82753 -2.136574 0 -0.03204901 0 -0.01231368)
(9.085232 -1.960354 0 -0.1483547 0 -0.01015618)
(7.746892 -1.750209 0 -0.2461334 0 -0.00849292)
(6.695666 -1.526167 0 -0.3247968 0 -0.007189668)
(5.851929 -1.302342 0 -0.3847995 0 -0.006152093)
(5.152832 -1.088456 0 -0.4272061 0 -0.00530903)
(4.568285 -0.8906297 0 -0.453599 0 -0.004615719)
(4.070351 -0.7123021 0 -0.4657579 0 -0.004039807)
(3.645054 -0.55482 0 -0.4656272 0 -0.00356045)
(3.280807 -0.4180209 0 -0.4550646 0 -0.003163311)
(2.97024 -0.3009834 0 -0.4359005 0 -0.002834207)
(2.706351 -0.2020723 0 -0.4097442 0 -0.002568636)
(2.487017 -0.119178 0 -0.3779868 0 -0.002356971)
(2.306054 -0.05019212 0 -0.3418029 0 -0.00219552)
(2.164173 0.006997339 0 -0.3021217 0 -0.002079739)
(2.057281 0.05454994 0 -0.2596376 0 -0.002007315)
(1.982647 0.09429113 0 -0.214889 0 -0.001973452)
(1.937726 0.1275671 0 -0.1684337 0 -0.001973668)
(1.915228 0.15538 0 -0.1209037 0 -0.002000209)
(1.905179 0.177908 0 -0.07342293 0 -0.002040288)
(1.892257 0.1944594 0 -0.02776391 0 -0.002074649)
(1.857276 0.2037281 0 0.01350484 0 -0.002080082)
(1.780981 0.2042023 0 0.04734971 0 -0.002031788)
(1.650903 0.1950705 0 0.07105986 0 -0.001913563)
(1.467609 0.177047 0 0.0833015 0 -0.001724088)
(1.246605 0.1526261 0 0.08483823 0 -0.001481357)
(1.013018 0.1254087 0 0.07832066 0 -0.001215584)
(0.7920173 0.09892433 0 0.06726532 0 -0.0009579434)
(0.6008774 0.07563748 0 0.05484073 0 -0.0007315762)
(0.4466461 0.05662874 0 0.04316741 0 -0.0005468412)
(0.3281651 0.04190188 0 0.03325696 0 -0.0004034642)
(0.2400295 0.03086382 0 0.02533839 0 -0.0002962456)
(0.1756324 0.02274704 0 0.0192303 0 -0.0002175066)
(0.1290154 0.01683109 0 0.01460681 0 -0.0001603098)
(0.09530386 0.01252376 0 0.01113535 0 -0.0001186687)
(0.07087839 0.009384253 0 0.008535356 0 -8.86017e-05)
(0.05309753 0.007081523 0 0.006582101 0 -6.655564e-05)
(0.04010524 0.005388259 0 0.005119499 0 -5.03961e-05)
(0.03047077 0.004124188 0 0.003994481 0 -3.843616e-05)
(0.02313267 0.003154978 0 0.003097966 0 -2.922974e-05)
(0.01781489 0.002437897 0 0.002489946 0 -2.262524e-05)
(0.01371556 0.001877957 0 0.001997904 0 -1.749819e-05)
(0.0105935 0.001447809 0 0.001598164 0 -1.359138e-05)
(0.008261111 0.001122869 0 0.001289067 0 -1.062911e-05)
(0.006502608 0.0008750794 0 0.001047545 0 -8.423623e-06)
(0.005167261 0.0006848178 0 0.0008577251 0 -6.719107e-06)
(0.004149814 0.0005382561 0 0.0007083441 0 -5.397531e-06)
(0.003373955 0.0004255769 0 0.0005913885 0 -4.416782e-06)
(0.002777887 0.0003390716 0 0.0004985685 0 -3.668084e-06)
(0.002331543 0.0002743668 0 0.0004297382 0 -3.071201e-06)
(0.001957837 0.0002241592 0 0.000365181 0 -2.590541e-06)
(0.001755471 0.0001935123 0 0.0003479677 0 -2.336895e-06)
(0.00133322 0.0001564879 0 0.0002366926 0 -1.73298e-06)
(0.001685141 0.0001635218 0 0.0004162171 0 -2.305093e-06)
(9.396054e-05 8.815458e-05 0 -0.0001681429 0 8.942715e-08)
(0.003628354 0.0001857271 0 0.00126883 0 -5.581492e-06)
(-0.004345791 -2.555829e-05 0 -0.001876589 0 5.062908e-06)
(0.006795309 0.0001441352 0 0.002601104 0 -6.830519e-06)
(-0.002067963 -2.154253e-05 0 -0.0009330863 0 1.646735e-06)
(-108.5585 1.349917 0 0.199298 0 0.1320182)
(-116.0017 4.020002 0 0.4470859 0 0.1404545)
(-152.0337 5.762023 0 0.7128442 0 0.1562359)
(-182.9431 5.466004 0 0.9308541 0 0.1611698)
(-143.1404 4.933151 0 1.040862 0 0.1268951)
(-51.78767 4.388172 0 1.025142 0 0.06162049)
(15.28832 3.519176 0 1.014835 0 0.002986745)
(41.6021 2.313676 0 1.005508 0 -0.03084639)
(47.52606 1.11956 0 0.9778722 0 -0.04450654)
(44.51493 0.07206486 0 0.9205308 0 -0.04614686)
(38.23483 -0.7894991 0 0.8291417 0 -0.04192884)
(31.40358 -1.450521 0 0.7066314 0 -0.03560313)
(25.23683 -1.909118 0 0.561345 0 -0.02914757)
(20.14931 -2.178736 0 0.4044234 0 -0.02344799)
(16.15962 -2.282759 0 0.2477296 0 -0.01878623)
(13.12462 -2.255273 0 0.1008777 0 -0.01513003)
(10.82753 -2.136574 0 -0.03204901 0 -0.01231368)
(9.085232 -1.960354 0 -0.1483547 0 -0.01015618)
(7.746892 -1.750209 0 -0.2461334 0 -0.00849292)
(6.695666 -1.526167 0 -0.3247968 0 -0.007189668)
(5.851929 -1.302342 0 -0.3847995 0 -0.006152093)
(5.152832 -1.088456 0 -0.4272061 0 -0.00530903)
(4.568285 -0.8906297 0 -0.453599 0 -0.004615719)
(4.070351 -0.7123021 0 -0.4657579 0 -0.004039807)
(3.645054 -0.55482 0 -0.4656272 0 -0.00356045)
(3.280807 -0.4180209 0 -0.4550646 0 -0.003163311)
(2.97024 -0.3009834 0 -0.4359005 0 -0.002834207)
(2.706351 -0.2020723 0 -0.4097442 0 -0.002568636)
(2.487017 -0.119178 0 -0.3779868 0 -0.002356971)
(2.306054 -0.05019212 0 -0.3418029 0 -0.00219552)
(2.164173 0.006997339 0 -0.3021217 0 -0.002079739)
(2.057281 0.05454994 0 -0.2596376 0 -0.002007315)
(1.982647 0.09429113 0 -0.214889 0 -0.001973452)
(1.937726 0.1275671 0 -0.1684337 0 -0.001973668)
(1.915228 0.15538 0 -0.1209037 0 -0.002000209)
(1.905179 0.177908 0 -0.07342293 0 -0.002040288)
(1.892257 0.1944594 0 -0.02776391 0 -0.002074649)
(1.857276 0.2037281 0 0.01350484 0 -0.002080082)
(1.780981 0.2042023 0 0.04734971 0 -0.002031788)
(1.650903 0.1950705 0 0.07105986 0 -0.001913563)
(1.467609 0.177047 0 0.0833015 0 -0.001724088)
(1.246605 0.1526261 0 0.08483823 0 -0.001481357)
(1.013018 0.1254087 0 0.07832066 0 -0.001215584)
(0.7920173 0.09892433 0 0.06726532 0 -0.0009579434)
(0.6008774 0.07563748 0 0.05484073 0 -0.0007315762)
(0.4466461 0.05662874 0 0.04316741 0 -0.0005468412)
(0.3281651 0.04190188 0 0.03325696 0 -0.0004034642)
(0.2400295 0.03086382 0 0.02533839 0 -0.0002962456)
(0.1756324 0.02274704 0 0.0192303 0 -0.0002175066)
(0.1290154 0.01683109 0 0.01460681 0 -0.0001603098)
(0.09530386 0.01252376 0 0.01113535 0 -0.0001186687)
(0.07087839 0.009384253 0 0.008535356 0 -8.86017e-05)
(0.05309753 0.007081523 0 0.006582101 0 -6.655564e-05)
(0.04010524 0.005388259 0 0.005119499 0 -5.03961e-05)
(0.03047077 0.004124188 0 0.003994481 0 -3.843616e-05)
(0.02313267 0.003154978 0 0.003097966 0 -2.922974e-05)
(0.01781489 0.002437897 0 0.002489946 0 -2.262524e-05)
(0.01371556 0.001877957 0 0.001997904 0 -1.749819e-05)
(0.0105935 0.001447809 0 0.001598164 0 -1.359138e-05)
(0.008261111 0.001122869 0 0.001289067 0 -1.062911e-05)
(0.006502608 0.0008750794 0 0.001047545 0 -8.423623e-06)
(0.005167261 0.0006848178 0 0.0008577251 0 -6.719107e-06)
(0.004149814 0.0005382561 0 0.0007083441 0 -5.397531e-06)
(0.003373955 0.0004255769 0 0.0005913885 0 -4.416782e-06)
(0.002777887 0.0003390716 0 0.0004985685 0 -3.668084e-06)
(0.002331543 0.0002743668 0 0.0004297382 0 -3.071201e-06)
(0.001957837 0.0002241592 0 0.000365181 0 -2.590541e-06)
(0.001755471 0.0001935123 0 0.0003479677 0 -2.336895e-06)
(0.00133322 0.0001564879 0 0.0002366926 0 -1.73298e-06)
(0.001685141 0.0001635218 0 0.0004162171 0 -2.305093e-06)
(9.396054e-05 8.815458e-05 0 -0.0001681429 0 8.942715e-08)
(0.003628354 0.0001857271 0 0.00126883 0 -5.581492e-06)
(-0.004345791 -2.555829e-05 0 -0.001876589 0 5.062908e-06)
(0.006795309 0.0001441352 0 0.002601104 0 -6.830519e-06)
(-0.002067963 -2.154253e-05 0 -0.0009330863 0 1.646735e-06)
)
;
    }
    wall
    {
        type            calculated;
        value           nonuniform List<symmTensor> 2((-107.7703 1.357947 0 0.1989698 0 0.1315237) (-109.3468 1.341887 0 0.1996263 0 0.1325127));
    }
    frontAndBack
    {
        type            empty;
    }
    middle
    {
        type            symmetryPlane;
        value           nonuniform List<symmTensor> 2((-0.002068197 0 0 -0.000933166 0 1.539554e-06) (-0.002067729 0 0 -0.0009330067 0 1.753916e-06));
    }
}


// ************************************************************************* //
