/*--------------------------------*- C++ -*----------------------------------*\
| =========                 |                                                 |
| \\      /  F ield         | foam-extend: Open Source CFD                    |
|  \\    /   O peration     | Version:     4.0                                |
|   \\  /    A nd           | Web:         http://www.foam-extend.org         |
|    \\/     M anipulation  |                                                 |
\*---------------------------------------------------------------------------*/
FoamFile
{
    version     2.0;
    format      ascii;
    class       volScalarField;
    location    "100";
    object      epsilonV;
}
// * * * * * * * * * * * * * * * * * * * * * * * * * * * * * * * * * * * * * //

dimensions      [0 2 -3 0 0 0 0];

internalField   nonuniform List<scalar> 
150
(
0.0003823228
0.0003823608
0.01825992
0.0182602
0.09245051
0.09245072
0.2288005
0.2288003
0.4803311
0.4803308
0.8100022
0.8100024
1.148392
1.148393
1.479421
1.479423
1.797107
1.79711
2.098847
2.09885
2.382532
2.382535
2.64566
2.645663
2.885336
2.88534
3.098619
3.098622
3.28291
3.282912
3.436273
3.436274
3.557618
3.55762
3.646554
3.646555
3.703302
3.703304
3.728641
3.728641
3.723793
3.723793
3.69034
3.69034
3.630131
3.630131
3.545212
3.545213
3.437771
3.437772
3.310093
3.310093
3.16453
3.16453
3.00348
3.003483
2.829375
2.829376
2.644676
2.644676
2.451879
2.45188
2.253534
2.253536
2.052264
2.052264
1.850788
1.850788
1.651941
1.651943
1.458674
1.458675
1.273998
1.274
1.100864
1.100865
0.9419404
0.9419413
0.7993234
0.7993242
0.6742462
0.6742468
0.5668937
0.5668943
0.4764255
0.4764258
0.4012062
0.4012065
0.3391603
0.3391606
0.2881178
0.2881179
0.2460602
0.2460604
0.2112468
0.2112469
0.1822447
0.1822448
0.1579067
0.1579067
0.1373274
0.1373274
0.1197951
0.1197951
0.1047512
0.1047512
0.0917551
0.09175509
0.08046015
0.08046014
0.07058633
0.07058632
0.06189296
0.06189297
0.05420513
0.05420512
0.0473707
0.04737071
0.04126069
0.04126069
0.03577239
0.03577239
0.03082346
0.03082345
0.02634793
0.02634792
0.02229366
0.02229366
0.01862082
0.01862082
0.01529964
0.01529965
0.01231259
0.0123126
0.009641993
0.009642004
0.00730619
0.007306199
0.00523766
0.005237661
0.003646481
0.003646469
0.001933023
0.001933002
0.001830848
0.001830852
-0.0006881486
-0.0006881432
0.0006600483
0.0006600467
)
;

boundaryField
{
    leftandright
    {
        type            cyclic;
        value           nonuniform List<scalar> 
150
(
0.0003823418
0.01826006
0.09245062
0.2288004
0.480331
0.8100023
1.148392
1.479422
1.797108
2.098849
2.382533
2.645662
2.885338
3.098621
3.282911
3.436273
3.557619
3.646554
3.703303
3.728641
3.723793
3.69034
3.630131
3.545213
3.437772
3.310093
3.16453
3.003481
2.829376
2.644676
2.45188
2.253535
2.052264
1.850788
1.651942
1.458674
1.273999
1.100865
0.9419408
0.7993238
0.6742465
0.566894
0.4764257
0.4012064
0.3391604
0.2881179
0.2460603
0.2112469
0.1822447
0.1579067
0.1373274
0.1197951
0.1047512
0.09175509
0.08046014
0.07058633
0.06189296
0.05420513
0.0473707
0.04126069
0.03577239
0.03082346
0.02634792
0.02229366
0.01862082
0.01529964
0.0123126
0.009641999
0.007306195
0.00523766
0.003646475
0.001933012
0.00183085
-0.0006881459
0.0006600475
0.0003823418
0.01826006
0.09245062
0.2288004
0.480331
0.8100023
1.148392
1.479422
1.797108
2.098849
2.382533
2.645662
2.885338
3.098621
3.282911
3.436273
3.557619
3.646554
3.703303
3.728641
3.723793
3.69034
3.630131
3.545213
3.437772
3.310093
3.16453
3.003481
2.829376
2.644676
2.45188
2.253535
2.052264
1.850788
1.651942
1.458674
1.273999
1.100865
0.9419408
0.7993238
0.6742465
0.566894
0.4764257
0.4012064
0.3391604
0.2881179
0.2460603
0.2112469
0.1822447
0.1579067
0.1373274
0.1197951
0.1047512
0.09175509
0.08046014
0.07058633
0.06189296
0.05420513
0.0473707
0.04126069
0.03577239
0.03082346
0.02634792
0.02229366
0.01862082
0.01529964
0.0123126
0.009641999
0.007306195
0.00523766
0.003646475
0.001933012
0.00183085
-0.0006881459
0.0006600475
)
;
    }
    wall
    {
        type            calculated;
        value           nonuniform List<scalar> 2(1.721976e-09 1.722144e-09);
    }
    frontAndBack
    {
        type            empty;
    }
    middle
    {
        type            symmetryPlane;
        value           nonuniform List<scalar> 2(0.0006600483 0.0006600467);
    }
}


// ************************************************************************* //
