/*--------------------------------*- C++ -*----------------------------------*\
| =========                 |                                                 |
| \\      /  F ield         | foam-extend: Open Source CFD                    |
|  \\    /   O peration     | Version:     4.0                                |
|   \\  /    A nd           | Web:         http://www.foam-extend.org         |
|    \\/     M anipulation  |                                                 |
\*---------------------------------------------------------------------------*/
FoamFile
{
    version     2.0;
    format      ascii;
    class       volScalarField;
    location    "100";
    object      epsilon;
}
// * * * * * * * * * * * * * * * * * * * * * * * * * * * * * * * * * * * * * //

dimensions      [0 2 -3 0 0 0 0];

internalField   nonuniform List<scalar> 
150
(
165.2908
165.2908
127.5705
127.5706
114.8396
114.8396
120.5384
120.5384
138.6886
138.6887
158.7826
158.7826
173.577
173.577
180.7852
180.7852
180.9271
180.9271
175.6903
175.6903
166.925
166.925
156.1882
156.1882
144.6219
144.6219
132.9884
132.9884
121.7562
121.7562
111.1867
111.1867
101.4045
101.4045
92.44834
92.44834
84.30574
84.30574
76.93544
76.93545
70.28173
70.28173
64.28311
64.28311
58.87759
58.8776
54.00561
54.00561
49.61156
49.61156
45.64452
45.64452
42.05838
42.05838
38.81172
38.81172
35.86756
35.86756
33.19292
33.19292
30.75851
30.75851
28.5383
28.5383
26.50921
26.50921
24.65071
24.65071
22.94462
22.94462
21.37477
21.37477
19.92687
19.92687
18.58824
18.58824
17.3477
17.3477
16.19541
16.19541
15.12277
15.12277
14.12224
14.12224
13.18725
13.18725
12.3121
12.3121
11.49176
11.49176
10.72185
10.72185
9.998462
9.998462
9.318134
9.318134
8.677749
8.677749
8.074492
8.074492
7.50581
7.50581
6.969369
6.969369
6.463036
6.463036
5.984845
5.984845
5.532977
5.532977
5.105742
5.105742
4.701544
4.701544
4.318934
4.318934
3.956658
3.956657
3.613668
3.613668
3.289131
3.289131
2.982434
2.982434
2.693199
2.693199
2.421298
2.421298
2.166867
2.166867
1.930311
1.930311
1.712297
1.712296
1.513722
1.513722
1.335657
1.335657
1.179262
1.179262
1.045687
1.045687
0.9360152
0.9360151
0.851275
0.8512749
0.7926718
0.7926718
0.7618748
0.7618748
)
;

boundaryField
{
    leftandright
    {
        type            cyclic;
        value           nonuniform List<scalar> 
150
(
165.2908
127.5706
114.8396
120.5384
138.6886
158.7826
173.577
180.7852
180.9271
175.6903
166.925
156.1882
144.6219
132.9884
121.7562
111.1867
101.4045
92.44834
84.30574
76.93545
70.28173
64.28311
58.87759
54.00561
49.61156
45.64452
42.05838
38.81172
35.86756
33.19292
30.75851
28.5383
26.50921
24.65071
22.94462
21.37477
19.92687
18.58824
17.3477
16.19541
15.12277
14.12224
13.18725
12.3121
11.49176
10.72185
9.998462
9.318134
8.677749
8.074492
7.50581
6.969369
6.463036
5.984845
5.532977
5.105742
4.701544
4.318934
3.956657
3.613668
3.289131
2.982434
2.693199
2.421298
2.166867
1.930311
1.712297
1.513722
1.335657
1.179262
1.045687
0.9360152
0.8512749
0.7926718
0.7618748
165.2908
127.5706
114.8396
120.5384
138.6886
158.7826
173.577
180.7852
180.9271
175.6903
166.925
156.1882
144.6219
132.9884
121.7562
111.1867
101.4045
92.44834
84.30574
76.93545
70.28173
64.28311
58.87759
54.00561
49.61156
45.64452
42.05838
38.81172
35.86756
33.19292
30.75851
28.5383
26.50921
24.65071
22.94462
21.37477
19.92687
18.58824
17.3477
16.19541
15.12277
14.12224
13.18725
12.3121
11.49176
10.72185
9.998462
9.318134
8.677749
8.074492
7.50581
6.969369
6.463036
5.984845
5.532977
5.105742
4.701544
4.318934
3.956657
3.613668
3.289131
2.982434
2.693199
2.421298
2.166867
1.930311
1.712297
1.513722
1.335657
1.179262
1.045687
0.9360152
0.8512749
0.7926718
0.7618748
)
;
    }
    wall
    {
        type            groovyBC;
        refValue        nonuniform List<scalar> 2(202.2229 202.2229);
        refGradient     uniform 0;
        valueFraction   uniform 1;
        value           nonuniform List<scalar> 2(202.2229 202.2229);
        valueExpression "2*nu*internalField(k)/sqr(mag(delta()))";
        gradientExpression "0";
        fractionExpression "1";
        evaluateDuringConstruction 0;
        variables       "";
        timelines       (
);
        lookuptables    (
);
    }
    frontAndBack
    {
        type            empty;
    }
    middle
    {
        type            symmetryPlane;
        value           nonuniform List<scalar> 2(0.7618748 0.7618748);
    }
}


// ************************************************************************* //
