/*--------------------------------*- C++ -*----------------------------------*\
| =========                 |                                                 |
| \\      /  F ield         | foam-extend: Open Source CFD                    |
|  \\    /   O peration     | Version:     4.0                                |
|   \\  /    A nd           | Web:         http://www.foam-extend.org         |
|    \\/     M anipulation  |                                                 |
\*---------------------------------------------------------------------------*/
FoamFile
{
    version     2.0;
    format      ascii;
    class       volScalarField;
    location    "100";
    object      epsilonPlus;
}
// * * * * * * * * * * * * * * * * * * * * * * * * * * * * * * * * * * * * * //

dimensions      [0 4 -4 0 0 0 0];

internalField   nonuniform List<scalar> 
150
(
0.1652908
0.1652908
0.1275705
0.1275706
0.1148396
0.1148396
0.1205384
0.1205384
0.1386886
0.1386887
0.1587826
0.1587826
0.173577
0.173577
0.1807852
0.1807852
0.1809271
0.1809271
0.1756903
0.1756903
0.166925
0.166925
0.1561882
0.1561882
0.1446219
0.1446219
0.1329884
0.1329884
0.1217562
0.1217562
0.1111867
0.1111867
0.1014045
0.1014045
0.09244834
0.09244834
0.08430574
0.08430574
0.07693544
0.07693545
0.07028173
0.07028173
0.06428311
0.06428311
0.05887759
0.0588776
0.05400561
0.05400561
0.04961156
0.04961156
0.04564452
0.04564452
0.04205838
0.04205838
0.03881172
0.03881172
0.03586756
0.03586756
0.03319292
0.03319292
0.03075851
0.03075851
0.0285383
0.0285383
0.02650921
0.02650921
0.02465071
0.02465071
0.02294462
0.02294462
0.02137477
0.02137477
0.01992687
0.01992687
0.01858824
0.01858824
0.0173477
0.0173477
0.01619541
0.01619541
0.01512277
0.01512277
0.01412224
0.01412224
0.01318725
0.01318725
0.0123121
0.0123121
0.01149176
0.01149176
0.01072185
0.01072185
0.009998462
0.009998462
0.009318134
0.009318134
0.008677749
0.008677749
0.008074492
0.008074492
0.00750581
0.00750581
0.006969369
0.006969369
0.006463036
0.006463036
0.005984845
0.005984845
0.005532977
0.005532977
0.005105742
0.005105742
0.004701544
0.004701544
0.004318934
0.004318934
0.003956658
0.003956657
0.003613668
0.003613668
0.003289131
0.003289131
0.002982434
0.002982434
0.002693199
0.002693199
0.002421298
0.002421298
0.002166867
0.002166867
0.001930311
0.001930311
0.001712297
0.001712296
0.001513722
0.001513722
0.001335657
0.001335657
0.001179262
0.001179262
0.001045687
0.001045687
0.0009360152
0.0009360151
0.000851275
0.0008512749
0.0007926718
0.0007926718
0.0007618748
0.0007618748
)
;

boundaryField
{
    leftandright
    {
        type            cyclic;
        value           nonuniform List<scalar> 
150
(
0.1652908
0.1275706
0.1148396
0.1205384
0.1386886
0.1587826
0.173577
0.1807852
0.1809271
0.1756903
0.166925
0.1561882
0.1446219
0.1329884
0.1217562
0.1111867
0.1014045
0.09244834
0.08430574
0.07693545
0.07028173
0.06428311
0.05887759
0.05400561
0.04961156
0.04564452
0.04205838
0.03881172
0.03586756
0.03319292
0.03075851
0.0285383
0.02650921
0.02465071
0.02294462
0.02137477
0.01992687
0.01858824
0.0173477
0.01619541
0.01512277
0.01412224
0.01318725
0.0123121
0.01149176
0.01072185
0.009998462
0.009318134
0.008677749
0.008074492
0.00750581
0.006969369
0.006463036
0.005984845
0.005532977
0.005105742
0.004701544
0.004318934
0.003956657
0.003613668
0.003289131
0.002982434
0.002693199
0.002421298
0.002166867
0.001930311
0.001712297
0.001513722
0.001335657
0.001179262
0.001045687
0.0009360152
0.0008512749
0.0007926718
0.0007618748
0.1652908
0.1275706
0.1148396
0.1205384
0.1386886
0.1587826
0.173577
0.1807852
0.1809271
0.1756903
0.166925
0.1561882
0.1446219
0.1329884
0.1217562
0.1111867
0.1014045
0.09244834
0.08430574
0.07693545
0.07028173
0.06428311
0.05887759
0.05400561
0.04961156
0.04564452
0.04205838
0.03881172
0.03586756
0.03319292
0.03075851
0.0285383
0.02650921
0.02465071
0.02294462
0.02137477
0.01992687
0.01858824
0.0173477
0.01619541
0.01512277
0.01412224
0.01318725
0.0123121
0.01149176
0.01072185
0.009998462
0.009318134
0.008677749
0.008074492
0.00750581
0.006969369
0.006463036
0.005984845
0.005532977
0.005105742
0.004701544
0.004318934
0.003956657
0.003613668
0.003289131
0.002982434
0.002693199
0.002421298
0.002166867
0.001930311
0.001712297
0.001513722
0.001335657
0.001179262
0.001045687
0.0009360152
0.0008512749
0.0007926718
0.0007618748
)
;
    }
    wall
    {
        type            calculated;
        value           nonuniform List<scalar> 2(0.2022229 0.2022229);
    }
    frontAndBack
    {
        type            empty;
    }
    middle
    {
        type            symmetryPlane;
        value           nonuniform List<scalar> 2(0.0007618748 0.0007618748);
    }
}


// ************************************************************************* //
