/*--------------------------------*- C++ -*----------------------------------*\
| =========                 |                                                 |
| \\      /  F ield         | foam-extend: Open Source CFD                    |
|  \\    /   O peration     | Version:     4.0                                |
|   \\  /    A nd           | Web:         http://www.foam-extend.org         |
|    \\/     M anipulation  |                                                 |
\*---------------------------------------------------------------------------*/
FoamFile
{
    version     2.0;
    format      ascii;
    class       volScalarField;
    location    "100";
    object      EtauP;
}
// * * * * * * * * * * * * * * * * * * * * * * * * * * * * * * * * * * * * * //

dimensions      [0 2 -4 0 0 0 0];

internalField   nonuniform List<scalar> 
150
(
0.0954086
0.09541811
2.710256
2.710298
11.36366
11.36368
26.93361
26.9336
46.69698
46.69695
66.22197
66.22199
82.84106
82.84114
95.88081
95.88092
105.4045
105.4047
111.8019
111.802
115.5387
115.5388
117.0518
117.0519
116.721
116.7211
114.8732
114.8733
111.7941
111.7942
107.7377
107.7378
102.9322
102.9323
97.57708
97.57711
91.84428
91.84432
85.88081
85.88081
79.8101
79.8101
73.7343
73.7343
67.73628
67.73629
61.88216
61.88216
56.22346
56.22347
50.79939
50.79939
45.63884
45.63885
40.76216
40.76219
36.18278
36.18279
31.90859
31.9086
27.94323
27.94324
24.28715
24.28717
20.93855
20.93856
17.89415
17.89415
15.14963
15.14965
12.69999
12.7
10.5392
10.5392
8.659471
8.659479
7.050104
7.050111
5.69606
5.696066
4.577054
4.577058
3.667679
3.667683
2.938908
2.93891
2.360551
2.360552
1.903856
1.903858
1.543435
1.543436
1.258149
1.25815
1.031133
1.031134
0.849284
0.8492845
0.7025696
0.7025696
0.5833515
0.5833515
0.4858081
0.4858081
0.4054881
0.4054881
0.3389626
0.3389626
0.2835821
0.283582
0.2372611
0.2372611
0.198306
0.198306
0.1654398
0.1654398
0.1376125
0.1376125
0.1139709
0.1139709
0.09383919
0.09383917
0.07667697
0.07667696
0.06204934
0.06204933
0.04960522
0.04960521
0.03906098
0.03906097
0.03018457
0.03018457
0.02278999
0.02279
0.01670515
0.01670517
0.01182742
0.01182743
0.007916861
0.007916862
0.005152614
0.005152596
0.002563931
0.002563903
0.002297983
0.002297988
-0.0008280799
-0.0008280733
0.0007756916
0.0007756897
)
;

boundaryField
{
    leftandright
    {
        type            cyclic;
        value           nonuniform List<scalar> 
150
(
0.09541336
2.710277
11.36367
26.93361
46.69696
66.22198
82.8411
95.88087
105.4046
111.802
115.5388
117.0519
116.721
114.8733
111.7942
107.7378
102.9322
97.57709
91.8443
85.88081
79.8101
73.7343
67.73629
61.88216
56.22346
50.79939
45.63884
40.76218
36.18279
31.90859
27.94324
24.28716
20.93856
17.89415
15.14964
12.7
10.5392
8.659475
7.050108
5.696063
4.577056
3.667681
2.938909
2.360552
1.903857
1.543435
1.258149
1.031133
0.8492842
0.7025696
0.5833515
0.4858081
0.4054881
0.3389626
0.2835821
0.2372611
0.198306
0.1654398
0.1376125
0.1139709
0.09383918
0.07667696
0.06204933
0.04960521
0.03906098
0.03018457
0.02279
0.01670516
0.01182743
0.007916861
0.005152605
0.002563917
0.002297985
-0.0008280766
0.0007756906
0.09541336
2.710277
11.36367
26.93361
46.69696
66.22198
82.8411
95.88087
105.4046
111.802
115.5388
117.0519
116.721
114.8733
111.7942
107.7378
102.9322
97.57709
91.8443
85.88081
79.8101
73.7343
67.73629
61.88216
56.22346
50.79939
45.63884
40.76218
36.18279
31.90859
27.94324
24.28716
20.93856
17.89415
15.14964
12.7
10.5392
8.659475
7.050108
5.696063
4.577056
3.667681
2.938909
2.360552
1.903857
1.543435
1.258149
1.031133
0.8492842
0.7025696
0.5833515
0.4858081
0.4054881
0.3389626
0.2835821
0.2372611
0.198306
0.1654398
0.1376125
0.1139709
0.09383918
0.07667696
0.06204933
0.04960521
0.03906098
0.03018457
0.02279
0.01670516
0.01182743
0.007916861
0.005152605
0.002563917
0.002297985
-0.0008280766
0.0007756906
)
;
    }
    wall
    {
        type            calculated;
        value           nonuniform List<scalar> 2(1.888145e-07 1.88833e-07);
    }
    frontAndBack
    {
        type            empty;
    }
    middle
    {
        type            symmetryPlane;
        value           nonuniform List<scalar> 2(0.0007756916 0.0007756897);
    }
}


// ************************************************************************* //
