/*--------------------------------*- C++ -*----------------------------------*\
| =========                 |                                                 |
| \\      /  F ield         | foam-extend: Open Source CFD                    |
|  \\    /   O peration     | Version:     4.0                                |
|   \\  /    A nd           | Web:         http://www.foam-extend.org         |
|    \\/     M anipulation  |                                                 |
\*---------------------------------------------------------------------------*/
FoamFile
{
    version     2.0;
    format      ascii;
    class       volScalarField;
    location    "100";
    object      eVyy;
}
// * * * * * * * * * * * * * * * * * * * * * * * * * * * * * * * * * * * * * //

dimensions      [0 2 -3 0 0 0 0];

internalField   nonuniform List<scalar> 
150
(
1.892646e-07
1.892835e-07
3.940541e-05
3.940601e-05
0.0003957955
0.0003957965
0.001466864
0.001466863
0.004048891
0.004048889
0.008461332
0.008461336
0.01446294
0.01446295
0.02210544
0.02210547
0.03147945
0.03147951
0.0426561
0.04265616
0.05564605
0.05564612
0.07037593
0.07037602
0.08667979
0.0866799
0.1043049
0.104305
0.1229283
0.1229284
0.1421825
0.1421826
0.1616823
0.1616824
0.1810324
0.1810325
0.199838
0.1998381
0.2177157
0.2177157
0.2343018
0.2343019
0.24926
0.24926
0.2622863
0.2622863
0.2731143
0.2731144
0.281519
0.2815191
0.2873199
0.28732
0.2903846
0.2903847
0.2906308
0.290631
0.2880293
0.2880295
0.2826066
0.2826067
0.274448
0.2744481
0.2637014
0.2637017
0.2505827
0.2505828
0.2353797
0.2353797
0.2184574
0.2184576
0.20026
0.2002601
0.1813046
0.1813048
0.1621633
0.1621634
0.1434261
0.1434263
0.1256467
0.1256469
0.109279
0.1092791
0.09462383
0.09462393
0.0818067
0.08180676
0.07079314
0.07079319
0.06143428
0.06143433
0.05352127
0.0535213
0.04683065
0.04683067
0.04115331
0.04115333
0.03630766
0.03630769
0.03214276
0.03214276
0.02853606
0.02853606
0.02538903
0.02538903
0.02262295
0.02262295
0.02017463
0.02017463
0.01799386
0.01799385
0.01603911
0.01603911
0.01427281
0.01427281
0.01267248
0.01267247
0.01121766
0.01121766
0.00988982
0.009889818
0.008673862
0.008673861
0.007557441
0.00755744
0.006530487
0.006530485
0.00558497
0.005584969
0.004714839
0.004714838
0.003915716
0.003915716
0.003185708
0.00318571
0.002522454
0.002522456
0.001932836
0.001932838
0.001401083
0.001401083
0.0009859754
0.0009859721
0.0005278856
0.0005278799
0.0005042587
0.0005042597
-0.0001907492
-0.0001907477
0.0001836122
0.0001836118
)
;

boundaryField
{
    leftandright
    {
        type            cyclic;
        value           nonuniform List<scalar> 
150
(
1.89274e-07
3.940571e-05
0.000395796
0.001466863
0.00404889
0.008461334
0.01446294
0.02210545
0.03147948
0.04265613
0.05564609
0.07037597
0.08667985
0.1043049
0.1229284
0.1421826
0.1616823
0.1810325
0.1998381
0.2177157
0.2343018
0.24926
0.2622863
0.2731143
0.281519
0.2873199
0.2903846
0.2906309
0.2880294
0.2826066
0.274448
0.2637016
0.2505827
0.2353797
0.2184575
0.20026
0.1813047
0.1621634
0.1434262
0.1256468
0.109279
0.09462388
0.08180673
0.07079317
0.0614343
0.05352128
0.04683066
0.04115332
0.03630767
0.03214276
0.02853606
0.02538903
0.02262295
0.02017463
0.01799386
0.01603911
0.01427281
0.01267247
0.01121766
0.009889819
0.008673862
0.00755744
0.006530486
0.00558497
0.004714838
0.003915716
0.003185709
0.002522455
0.001932837
0.001401083
0.0009859737
0.0005278828
0.0005042592
-0.0001907485
0.000183612
1.89274e-07
3.940571e-05
0.000395796
0.001466863
0.00404889
0.008461334
0.01446294
0.02210545
0.03147948
0.04265613
0.05564609
0.07037597
0.08667985
0.1043049
0.1229284
0.1421826
0.1616823
0.1810325
0.1998381
0.2177157
0.2343018
0.24926
0.2622863
0.2731143
0.281519
0.2873199
0.2903846
0.2906309
0.2880294
0.2826066
0.274448
0.2637016
0.2505827
0.2353797
0.2184575
0.20026
0.1813047
0.1621634
0.1434262
0.1256468
0.109279
0.09462388
0.08180673
0.07079317
0.0614343
0.05352128
0.04683066
0.04115332
0.03630767
0.03214276
0.02853606
0.02538903
0.02262295
0.02017463
0.01799386
0.01603911
0.01427281
0.01267247
0.01121766
0.009889819
0.008673862
0.00755744
0.006530486
0.00558497
0.004714838
0.003915716
0.003185709
0.002522455
0.001932837
0.001401083
0.0009859737
0.0005278828
0.0005042592
-0.0001907485
0.000183612
)
;
    }
    wall
    {
        type            calculated;
        value           nonuniform List<scalar> 2(1.119284e-09 1.119394e-09);
    }
    frontAndBack
    {
        type            empty;
    }
    middle
    {
        type            symmetryPlane;
        value           nonuniform List<scalar> 2(0.0001836122 0.0001836118);
    }
}


// ************************************************************************* //
