/*--------------------------------*- C++ -*----------------------------------*\
| =========                 |                                                 |
| \\      /  F ield         | foam-extend: Open Source CFD                    |
|  \\    /   O peration     | Version:     4.0                                |
|   \\  /    A nd           | Web:         http://www.foam-extend.org         |
|    \\/     M anipulation  |                                                 |
\*---------------------------------------------------------------------------*/
FoamFile
{
    version     2.0;
    format      ascii;
    class       volScalarField;
    location    "100";
    object      f;
}
// * * * * * * * * * * * * * * * * * * * * * * * * * * * * * * * * * * * * * //

dimensions      [0 0 -1 0 0 0 0];

internalField   nonuniform List<scalar> 
150
(
0.3294329
0.3294329
0.959933
0.9599331
1.582645
1.582646
2.195062
2.195062
2.787812
2.787813
3.35667
3.35667
3.897613
3.897614
4.406293
4.406294
4.879331
4.879332
5.314556
5.314556
5.710849
5.71085
6.067882
6.067883
6.385861
6.385862
6.665317
6.665317
6.906948
6.906949
7.111944
7.111945
7.284962
7.284962
7.429828
7.429828
7.549723
7.549723
7.647319
7.647319
7.72488
7.72488
7.784339
7.78434
7.827364
7.827365
7.8554
7.8554
7.869709
7.869709
7.8714
7.8714
7.861455
7.861455
7.840745
7.840745
7.810049
7.810049
7.770068
7.770068
7.721433
7.721433
7.664715
7.664715
7.600436
7.600436
7.529072
7.529072
7.45106
7.45106
7.366804
7.366804
7.276677
7.276677
7.181031
7.181031
7.080191
7.080191
6.97447
6.97447
6.864162
6.864162
6.749549
6.749549
6.630905
6.630905
6.508493
6.508493
6.382568
6.382568
6.253378
6.253378
6.121165
6.121165
5.986163
5.986163
5.848602
5.848602
5.708707
5.708707
5.566698
5.566698
5.422794
5.422794
5.277212
5.277212
5.130175
5.130175
4.98191
4.98191
4.832661
4.832661
4.682697
4.682697
4.532326
4.532326
4.381904
4.381904
4.231834
4.231834
4.082576
4.082576
3.934656
3.934656
3.788681
3.788681
3.645351
3.645351
3.505481
3.505481
3.37002
3.37002
3.240073
3.240073
3.116915
3.116915
3.002007
3.002007
2.896991
2.896991
2.803694
2.803694
2.724116
2.724116
2.660444
2.660444
2.615093
2.615093
2.590803
2.590803
)
;

boundaryField
{
    leftandright
    {
        type            cyclic;
        value           nonuniform List<scalar> 
150
(
0.3294329
0.9599331
1.582645
2.195062
2.787812
3.35667
3.897614
4.406294
4.879332
5.314556
5.710849
6.067883
6.385862
6.665317
6.906949
7.111945
7.284962
7.429828
7.549723
7.647319
7.72488
7.784339
7.827364
7.8554
7.869709
7.8714
7.861455
7.840745
7.810049
7.770068
7.721433
7.664715
7.600436
7.529072
7.45106
7.366804
7.276677
7.181031
7.080191
6.97447
6.864162
6.749549
6.630905
6.508493
6.382568
6.253378
6.121165
5.986163
5.848602
5.708707
5.566698
5.422794
5.277212
5.130175
4.98191
4.832661
4.682697
4.532326
4.381904
4.231834
4.082576
3.934656
3.788681
3.645351
3.505481
3.37002
3.240073
3.116915
3.002007
2.896991
2.803694
2.724116
2.660444
2.615093
2.590803
0.3294329
0.9599331
1.582645
2.195062
2.787812
3.35667
3.897614
4.406294
4.879332
5.314556
5.710849
6.067883
6.385862
6.665317
6.906949
7.111945
7.284962
7.429828
7.549723
7.647319
7.72488
7.784339
7.827364
7.8554
7.869709
7.8714
7.861455
7.840745
7.810049
7.770068
7.721433
7.664715
7.600436
7.529072
7.45106
7.366804
7.276677
7.181031
7.080191
6.97447
6.864162
6.749549
6.630905
6.508493
6.382568
6.253378
6.121165
5.986163
5.848602
5.708707
5.566698
5.422794
5.277212
5.130175
4.98191
4.832661
4.682697
4.532326
4.381904
4.231834
4.082576
3.934656
3.788681
3.645351
3.505481
3.37002
3.240073
3.116915
3.002007
2.896991
2.803694
2.724116
2.660444
2.615093
2.590803
)
;
    }
    wall
    {
        type            fixedValue;
        value           uniform 1e-10;
    }
    frontAndBack
    {
        type            empty;
    }
    middle
    {
        type            symmetryPlane;
        value           nonuniform List<scalar> 2(2.590803 2.590803);
    }
}


// ************************************************************************* //
