/*--------------------------------*- C++ -*----------------------------------*\
| =========                 |                                                 |
| \\      /  F ield         | foam-extend: Open Source CFD                    |
|  \\    /   O peration     | Version:     4.0                                |
|   \\  /    A nd           | Web:         http://www.foam-extend.org         |
|    \\/     M anipulation  |                                                 |
\*---------------------------------------------------------------------------*/
FoamFile
{
    version     2.0;
    format      ascii;
    class       volScalarField;
    location    "100";
    object      fp;
}
// * * * * * * * * * * * * * * * * * * * * * * * * * * * * * * * * * * * * * //

dimensions      [0 0 0 0 0 0 0];

internalField   nonuniform List<scalar> 
150
(
2.246844
2.247026
2.237268
2.237309
2.216076
2.216082
2.178575
2.178574
2.12076
2.120757
2.047363
2.04736
1.96974
1.969737
1.89614
1.896137
1.829546
1.829544
1.770371
1.770369
1.717968
1.717967
1.671352
1.67135
1.629513
1.629512
1.591555
1.591555
1.556736
1.556735
1.524464
1.524464
1.494285
1.494284
1.465846
1.465846
1.438881
1.438881
1.413181
1.413181
1.388583
1.388583
1.364959
1.364959
1.3422
1.3422
1.320221
1.32022
1.298946
1.298946
1.278318
1.278317
1.258286
1.258286
1.238817
1.238817
1.219884
1.219884
1.201476
1.201476
1.183594
1.183594
1.166255
1.166255
1.149493
1.149493
1.133363
1.133363
1.11794
1.11794
1.10332
1.10332
1.089621
1.089621
1.076968
1.076968
1.065484
1.065484
1.055265
1.055265
1.046361
1.046361
1.038758
1.038759
1.032382
1.032382
1.027104
1.027104
1.02277
1.02277
1.019224
1.019224
1.016318
1.016318
1.013926
1.013926
1.011946
1.011946
1.010294
1.010294
1.008906
1.008906
1.007732
1.007732
1.00673
1.00673
1.00587
1.00587
1.005127
1.005127
1.004482
1.004482
1.003917
1.003917
1.003421
1.003421
1.002981
1.002981
1.002591
1.002591
1.002241
1.002241
1.001927
1.001927
1.001644
1.001644
1.001388
1.001388
1.001158
1.001158
1.000949
1.000949
1.000763
1.000763
1.000596
1.000596
1.000451
1.000451
1.000322
1.000322
1.000224
1.000224
1.000119
1.000119
1.000111
1.000111
1
1
1.00004
1.00004
)
;

boundaryField
{
    leftandright
    {
        type            cyclic;
        value           nonuniform List<scalar> 
150
(
2.246935
2.237289
2.216079
2.178575
2.120758
2.047361
1.969738
1.896139
1.829545
1.77037
1.717967
1.671351
1.629512
1.591555
1.556736
1.524464
1.494284
1.465846
1.438881
1.413181
1.388583
1.364959
1.3422
1.320221
1.298946
1.278318
1.258286
1.238817
1.219884
1.201476
1.183594
1.166255
1.149493
1.133363
1.11794
1.10332
1.089621
1.076968
1.065484
1.055265
1.046361
1.038758
1.032382
1.027104
1.02277
1.019224
1.016318
1.013926
1.011946
1.010294
1.008906
1.007732
1.00673
1.00587
1.005127
1.004482
1.003917
1.003421
1.002981
1.002591
1.002241
1.001927
1.001644
1.001388
1.001158
1.000949
1.000763
1.000596
1.000451
1.000322
1.000224
1.000119
1.000111
1
1.00004
2.246935
2.237289
2.216079
2.178575
2.120758
2.047361
1.969738
1.896139
1.829545
1.77037
1.717967
1.671351
1.629512
1.591555
1.556736
1.524464
1.494284
1.465846
1.438881
1.413181
1.388583
1.364959
1.3422
1.320221
1.298946
1.278318
1.258286
1.238817
1.219884
1.201476
1.183594
1.166255
1.149493
1.133363
1.11794
1.10332
1.089621
1.076968
1.065484
1.055265
1.046361
1.038758
1.032382
1.027104
1.02277
1.019224
1.016318
1.013926
1.011946
1.010294
1.008906
1.007732
1.00673
1.00587
1.005127
1.004482
1.003917
1.003421
1.002981
1.002591
1.002241
1.001927
1.001644
1.001388
1.001158
1.000949
1.000763
1.000596
1.000451
1.000322
1.000224
1.000119
1.000111
1
1.00004
)
;
    }
    wall
    {
        type            calculated;
        value           nonuniform List<scalar> 2(2.246844 2.247026);
    }
    frontAndBack
    {
        type            empty;
    }
    middle
    {
        type            symmetryPlane;
        value           nonuniform List<scalar> 2(1.00004 1.00004);
    }
}


// ************************************************************************* //
