/*--------------------------------*- C++ -*----------------------------------*\
| =========                 |                                                 |
| \\      /  F ield         | foam-extend: Open Source CFD                    |
|  \\    /   O peration     | Version:     4.0                                |
|   \\  /    A nd           | Web:         http://www.foam-extend.org         |
|    \\/     M anipulation  |                                                 |
\*---------------------------------------------------------------------------*/
FoamFile
{
    version     2.0;
    format      ascii;
    class       volScalarField;
    location    "100";
    object      k;
}
// * * * * * * * * * * * * * * * * * * * * * * * * * * * * * * * * * * * * * //

dimensions      [0 2 -2 0 0 0 0];

internalField   nonuniform List<scalar> 
150
(
0.04355638
0.0435564
0.423683
0.4236831
1.051416
1.051417
1.867136
1.867136
2.786406
2.786407
3.684216
3.684216
4.457774
4.457775
5.064355
5.064356
5.502462
5.502462
5.792609
5.79261
5.963056
5.963057
6.041736
6.041736
6.052717
6.052718
6.015264
6.015265
5.944127
5.944128
5.850291
5.850291
5.741788
5.741788
5.624421
5.624422
5.502341
5.502341
5.378485
5.378486
5.254909
5.254909
5.133021
5.133021
5.013766
5.013766
4.897743
4.897743
4.785307
4.785308
4.67663
4.676631
4.571754
4.571754
4.470622
4.470622
4.373109
4.37311
4.279041
4.279041
4.188204
4.188204
4.100359
4.100359
4.015247
4.015247
3.932599
3.932599
3.852136
3.852136
3.773576
3.773576
3.696641
3.696641
3.621058
3.621058
3.546566
3.546566
3.472919
3.472919
3.399893
3.399893
3.327289
3.327289
3.254931
3.254931
3.18267
3.18267
3.110377
3.110377
3.037941
3.037941
2.965268
2.965268
2.892272
2.892272
2.818877
2.818877
2.745012
2.745012
2.670611
2.670611
2.59561
2.59561
2.519949
2.519949
2.44357
2.44357
2.366415
2.366415
2.288429
2.288429
2.209554
2.209554
2.129742
2.129742
2.048976
2.048976
1.967276
1.967276
1.88472
1.88472
1.801457
1.801457
1.717727
1.717727
1.633885
1.633885
1.550427
1.550427
1.468015
1.468015
1.387502
1.387502
1.309943
1.309943
1.23659
1.23659
1.16887
1.16887
1.108324
1.108324
1.056555
1.056555
1.015159
1.015159
0.985763
0.985763
0.9700398
0.9700398
)
;

boundaryField
{
    leftandright
    {
        type            cyclic;
        value           nonuniform List<scalar> 
150
(
0.04355639
0.423683
1.051416
1.867136
2.786406
3.684216
4.457774
5.064355
5.502462
5.79261
5.963056
6.041736
6.052718
6.015264
5.944127
5.850291
5.741788
5.624421
5.502341
5.378486
5.254909
5.133021
5.013766
4.897743
4.785307
4.676631
4.571754
4.470622
4.37311
4.279041
4.188204
4.100359
4.015247
3.932599
3.852136
3.773576
3.696641
3.621058
3.546566
3.472919
3.399893
3.327289
3.254931
3.18267
3.110377
3.037941
2.965268
2.892272
2.818877
2.745012
2.670611
2.59561
2.519949
2.44357
2.366415
2.288429
2.209554
2.129742
2.048976
1.967276
1.88472
1.801457
1.717727
1.633885
1.550427
1.468015
1.387502
1.309943
1.23659
1.16887
1.108324
1.056555
1.015159
0.985763
0.9700398
0.04355639
0.423683
1.051416
1.867136
2.786406
3.684216
4.457774
5.064355
5.502462
5.79261
5.963056
6.041736
6.052718
6.015264
5.944127
5.850291
5.741788
5.624421
5.502341
5.378486
5.254909
5.133021
5.013766
4.897743
4.785307
4.676631
4.571754
4.470622
4.37311
4.279041
4.188204
4.100359
4.015247
3.932599
3.852136
3.773576
3.696641
3.621058
3.546566
3.472919
3.399893
3.327289
3.254931
3.18267
3.110377
3.037941
2.965268
2.892272
2.818877
2.745012
2.670611
2.59561
2.519949
2.44357
2.366415
2.288429
2.209554
2.129742
2.048976
1.967276
1.88472
1.801457
1.717727
1.633885
1.550427
1.468015
1.387502
1.309943
1.23659
1.16887
1.108324
1.056555
1.015159
0.985763
0.9700398
)
;
    }
    wall
    {
        type            fixedValue;
        value           uniform 1e-10;
    }
    frontAndBack
    {
        type            empty;
    }
    middle
    {
        type            symmetryPlane;
        value           nonuniform List<scalar> 2(0.9700398 0.9700398);
    }
}


// ************************************************************************* //
