/*--------------------------------*- C++ -*----------------------------------*\
| =========                 |                                                 |
| \\      /  F ield         | foam-extend: Open Source CFD                    |
|  \\    /   O peration     | Version:     4.0                                |
|   \\  /    A nd           | Web:         http://www.foam-extend.org         |
|    \\/     M anipulation  |                                                 |
\*---------------------------------------------------------------------------*/
FoamFile
{
    version     2.0;
    format      ascii;
    class       volSymmTensorField;
    location    "100";
    object      N;
}
// * * * * * * * * * * * * * * * * * * * * * * * * * * * * * * * * * * * * * //

dimensions      [0 2 -2 0 0 0 0];

internalField   nonuniform List<symmTensor> 
150
(
(0.08485293 0 0 3.317245e-05 0 0.002226667)
(0.0848531 0 0 3.317247e-05 0 0.002226523)
(0.8170792 0 0 0.001406645 0 0.02888009)
(0.8170794 0 0 0.001406646 0 0.0288801)
(1.996349 0 0 0.006925048 0 0.09955887)
(1.996349 0 0 0.006925051 0 0.09955891)
(3.501768 0 0 0.018416 0 0.2140872)
(3.501769 0 0 0.018416 0 0.2140873)
(5.173387 0 0 0.03613486 0 0.3632908)
(5.173388 0 0 0.03613487 0 0.3632909)
(6.778412 0 0 0.05920851 0 0.5308113)
(6.778413 0 0 0.05920853 0 0.5308114)
(8.128908 1.548074e-17 0 0.08637162 0 0.7002684)
(8.128909 -1.548074e-17 0 0.08637165 0 0.7002685)
(9.151779 0 0 0.1164174 0 0.8605138)
(9.15178 0 0 0.1164175 0 0.8605139)
(9.851395 0 0 0.1482849 0 1.005244)
(9.851395 -3.9119e-17 0 0.1482849 0 1.005244)
(10.27219 0 0 0.1811178 0 1.131912)
(10.27219 0 0 0.1811178 0 1.131912)
(10.47145 0 0 0.2142649 0 1.240396)
(10.47145 0 0 0.2142649 0 1.240396)
(10.50431 -8.527129e-17 0 0.2472511 0 1.331912)
(10.50431 8.52713e-17 0 0.2472512 0 1.331912)
(10.41742 0 0 0.2797424 0 1.408277)
(10.41742 0 0 0.2797425 0 1.408277)
(10.24754 8.253774e-17 0 0.311514 0 1.471473)
(10.24754 -8.253775e-17 0 0.3115141 0 1.471473)
(10.02241 0 0 0.3424268 0 1.523414)
(10.02241 0 0 0.3424269 0 1.523415)
(9.762319 -7.686201e-17 0 0.3724111 0 1.565851)
(9.762319 0 0 0.3724112 0 1.565851)
(9.481789 0 0 0.4014549 0 1.600332)
(9.481789 0 0 0.401455 0 1.600332)
(9.191094 1.397387e-16 0 0.4295741 0 1.628175)
(9.191094 0 0 0.4295742 0 1.628175)
(8.897406 0 0 0.4567967 0 1.65048)
(8.897406 0 0 0.4567968 0 1.65048)
(8.605664 -2.500871e-16 0 0.4831542 0 1.668153)
(8.605664 1.250436e-16 0 0.4831543 0 1.668153)
(8.319201 0 0 0.5086768 0 1.681939)
(8.319201 0 0 0.5086769 0 1.68194)
(8.040204 2.214006e-16 0 0.5333912 0 1.692447)
(8.040205 0 0 0.5333913 0 1.692447)
(7.77004 2.076899e-16 0 0.5573191 0 1.700172)
(7.77004 0 0 0.5573192 0 1.700172)
(7.50949 0 0 0.5804767 0 1.70552)
(7.50949 0 0 0.5804768 0 1.70552)
(7.258921 -1.819111e-16 0 0.6028748 0 1.708819)
(7.258921 0 0 0.6028749 0 1.708819)
(7.018407 -1.699156e-16 0 0.6245184 0 1.710336)
(7.018407 0 0 0.6245185 0 1.710336)
(6.787816 -3.170711e-16 0 0.6454072 0 1.710284)
(6.787816 0 0 0.6454073 0 1.710284)
(6.566872 0 0 0.6655358 0 1.708836)
(6.566872 0 0 0.6655359 0 1.708836)
(6.355201 0 0 0.6848936 0 1.706124)
(6.355202 0 0 0.6848937 0 1.706124)
(6.152364 0 0 0.7034658 0 1.702252)
(6.152364 0 0 0.7034659 0 1.702252)
(5.957878 2.380883e-16 0 0.7212327 0 1.697298)
(5.957878 -2.380883e-16 0 0.7212328 0 1.697298)
(5.771232 2.211913e-16 0 0.7381708 0 1.691314)
(5.771233 0 0 0.7381709 0 1.691314)
(5.591906 -6.160325e-16 0 0.7542526 0 1.684336)
(5.591906 0 0 0.7542526 0 1.684336)
(5.41937 0 0 0.7694468 0 1.676381)
(5.41937 0 0 0.7694468 0 1.676381)
(5.253101 3.531932e-16 0 0.783719 0 1.667452)
(5.253101 0 0 0.7837191 0 1.667452)
(5.092582 0 0 0.7970319 0 1.657539)
(5.092582 0 0 0.7970319 0 1.657539)
(4.937314 6.057485e-16 0 0.8093454 0 1.646624)
(4.937314 -3.028743e-16 0 0.8093454 0 1.646624)
(4.786819 0 0 0.8206177 0 1.63468)
(4.786819 0 0 0.8206177 0 1.63468)
(4.640649 0 0 0.8308056 0 1.621676)
(4.640649 0 0 0.8308057 0 1.621676)
(4.498391 0 0 0.8398656 0 1.60758)
(4.498391 0 0 0.8398656 0 1.60758)
(4.359672 0 0 0.8477541 0 1.592359)
(4.359672 0 0 0.8477542 0 1.592359)
(4.224165 0 0 0.8544289 0 1.575984)
(4.224165 0 0 0.8544289 0 1.575984)
(4.091585 0 0 0.8598491 0 1.558428)
(4.091585 0 0 0.8598492 0 1.558428)
(3.961693 -6.896957e-16 0 0.863976 0 1.539672)
(3.961693 0 0 0.8639761 0 1.539672)
(3.834283 -3.170225e-16 0 0.8667729 0 1.519698)
(3.834283 0 0 0.8667729 0 1.519698)
(3.709184 0 0 0.8682049 0 1.498494)
(3.709184 0 0 0.8682049 0 1.498494)
(3.586248 0 0 0.8682388 0 1.476049)
(3.586248 0 0 0.8682389 0 1.47605)
(3.465344 0 0 0.8668427 0 1.452357)
(3.465345 0 0 0.8668427 0 1.452357)
(3.346361 4.482232e-16 0 0.8639849 0 1.427409)
(3.346361 0 0 0.8639849 0 1.427409)
(3.229194 4.098816e-16 0 0.8596338 0 1.401197)
(3.229194 -4.098816e-16 0 0.8596338 0 1.401197)
(3.113755 0 0 0.8537564 0 1.373711)
(3.113755 0 0 0.8537564 0 1.373711)
(2.999962 0 0 0.8463171 0 1.344941)
(2.999962 0 0 0.8463171 0 1.344941)
(2.887751 0 0 0.8372755 0 1.314872)
(2.887751 0 0 0.8372755 0 1.314872)
(2.777073 0 0 0.8265835 0 1.283483)
(2.777073 0 0 0.8265835 0 1.283483)
(2.667902 0 0 0.8141808 0 1.250748)
(2.667902 0 0 0.8141808 0 1.250748)
(2.560242 -4.67631e-16 0 0.7999883 0 1.216628)
(2.560242 4.67631e-16 0 0.7999883 0 1.216628)
(2.454141 0 0 0.7838977 0 1.181069)
(2.454141 0 0 0.7838977 0 1.181069)
(2.349341 0 0 0.7660105 0 1.144133)
(2.349341 0 0 0.7660105 0 1.144133)
(2.24556 -3.473923e-16 0 0.7464762 0 1.105916)
(2.24556 3.473923e-16 0 0.7464761 0 1.105916)
(2.142589 0 0 0.7254438 0 1.06652)
(2.142589 0 0 0.7254437 0 1.06652)
(2.040304 0 0 0.7030692 0 1.026068)
(2.040304 0 0 0.7030691 0 1.026068)
(1.938681 0 0 0.6795228 0 0.9847115)
(1.938681 0 0 0.6795227 0 0.9847115)
(1.837813 -9.109932e-16 0 0.654998 0 0.9426441)
(1.837813 0 0 0.654998 0 0.9426441)
(1.737936 0 0 0.6297204 0 0.9001139)
(1.737936 -4.073553e-16 0 0.6297203 0 0.9001138)
(1.639459 0 0 0.603957 0 0.8574381)
(1.639459 0 0 0.6039569 0 0.8574381)
(1.542987 0 0 0.5780257 0 0.8150179)
(1.542987 0 0 0.5780256 0 0.8150179)
(1.449352 0 0 0.5523023 0 0.7733503)
(1.449352 -5.735159e-16 0 0.5523022 0 0.7733503)
(1.359626 0 0 0.5272243 0 0.733035)
(1.359626 0 0 0.5272242 0 0.7330349)
(1.27512 0 0 0.503288 0 0.6947723)
(1.27512 0 0 0.503288 0 0.6947722)
(1.197352 0 0 0.4810381 0 0.6593489)
(1.197352 0 0 0.481038 0 0.6593489)
(1.127991 0 0 0.4610476 0 0.6276097)
(1.127991 0 0 0.4610476 0 0.6276097)
(1.068788 0 0 0.4438966 0 0.6004253)
(1.068788 0 0 0.4438966 0 0.6004252)
(1.021506 0 0 0.4301521 0 0.5786606)
(1.021506 0 0 0.4301521 0 0.5786606)
(0.9879575 0 0 0.4203779 0 0.5631906)
(0.9879575 0 0 0.4203779 0 0.5631906)
(0.9700201 -4.867332e-16 0 0.4151473 0 0.5549122)
(0.9700201 0 0 0.4151473 0 0.5549122)
)
;

boundaryField
{
    leftandright
    {
        type            cyclic;
        value           nonuniform List<symmTensor> 
150
(
(0.08485301 0 0 3.317246e-05 0 0.002226595)
(0.8170793 0 0 0.001406645 0 0.0288801)
(1.996349 0 0 0.006925049 0 0.09955889)
(3.501769 0 0 0.018416 0 0.2140872)
(5.173387 0 0 0.03613486 0 0.3632909)
(6.778412 0 0 0.05920852 0 0.5308114)
(8.128909 -8.51272e-33 0 0.08637163 0 0.7002684)
(9.15178 0 0 0.1164175 0 0.8605138)
(9.851395 -1.95595e-17 0 0.1482849 0 1.005244)
(10.27219 0 0 0.1811178 0 1.131912)
(10.47145 0 0 0.2142649 0 1.240396)
(10.50431 -6.684737e-33 0 0.2472512 0 1.331912)
(10.41742 0 0 0.2797424 0 1.408277)
(10.24754 2.144639e-32 0 0.311514 0 1.471473)
(10.02241 0 0 0.3424268 0 1.523415)
(9.762319 -3.843101e-17 0 0.3724112 0 1.565851)
(9.481789 0 0 0.401455 0 1.600332)
(9.191094 6.986936e-17 0 0.4295742 0 1.628175)
(8.897406 0 0 0.4567968 0 1.65048)
(8.605664 -6.252178e-17 0 0.4831542 0 1.668153)
(8.319201 0 0 0.5086768 0 1.681939)
(8.040205 1.107003e-16 0 0.5333912 0 1.692447)
(7.77004 1.038449e-16 0 0.5573191 0 1.700172)
(7.50949 0 0 0.5804768 0 1.70552)
(7.258921 -9.095556e-17 0 0.6028749 0 1.708819)
(7.018407 -8.495782e-17 0 0.6245185 0 1.710336)
(6.787816 -1.585355e-16 0 0.6454073 0 1.710284)
(6.566872 0 0 0.6655358 0 1.708836)
(6.355202 0 0 0.6848937 0 1.706124)
(6.152364 0 0 0.7034658 0 1.702252)
(5.957878 0 0 0.7212328 0 1.697298)
(5.771233 1.105957e-16 0 0.7381709 0 1.691314)
(5.591906 -3.080163e-16 0 0.7542526 0 1.684336)
(5.41937 0 0 0.7694468 0 1.676381)
(5.253101 1.765966e-16 0 0.783719 0 1.667452)
(5.092582 0 0 0.7970319 0 1.657539)
(4.937314 1.514371e-16 0 0.8093454 0 1.646624)
(4.786819 0 0 0.8206177 0 1.63468)
(4.640649 0 0 0.8308056 0 1.621676)
(4.498391 0 0 0.8398656 0 1.60758)
(4.359672 0 0 0.8477541 0 1.592359)
(4.224165 0 0 0.8544289 0 1.575984)
(4.091585 0 0 0.8598491 0 1.558428)
(3.961693 -3.448479e-16 0 0.863976 0 1.539672)
(3.834283 -1.585112e-16 0 0.8667729 0 1.519698)
(3.709184 0 0 0.8682049 0 1.498494)
(3.586248 0 0 0.8682389 0 1.476049)
(3.465345 0 0 0.8668427 0 1.452357)
(3.346361 2.241116e-16 0 0.8639849 0 1.427409)
(3.229194 4.539188e-31 0 0.8596338 0 1.401197)
(3.113755 0 0 0.8537564 0 1.373711)
(2.999962 0 0 0.8463171 0 1.344941)
(2.887751 0 0 0.8372755 0 1.314872)
(2.777073 0 0 0.8265835 0 1.283483)
(2.667902 0 0 0.8141808 0 1.250748)
(2.560242 -4.108383e-32 0 0.7999883 0 1.216628)
(2.454141 0 0 0.7838977 0 1.181069)
(2.349341 0 0 0.7660105 0 1.144133)
(2.24556 -7.088694e-32 0 0.7464762 0 1.105916)
(2.142589 0 0 0.7254438 0 1.06652)
(2.040304 0 0 0.7030692 0 1.026068)
(1.938681 0 0 0.6795228 0 0.9847115)
(1.837813 -4.554966e-16 0 0.654998 0 0.9426441)
(1.737936 -2.036777e-16 0 0.6297203 0 0.9001139)
(1.639459 0 0 0.603957 0 0.8574381)
(1.542987 0 0 0.5780256 0 0.8150179)
(1.449352 -2.867579e-16 0 0.5523023 0 0.7733503)
(1.359626 0 0 0.5272242 0 0.7330349)
(1.27512 0 0 0.503288 0 0.6947723)
(1.197352 0 0 0.481038 0 0.6593489)
(1.127991 0 0 0.4610476 0 0.6276097)
(1.068788 0 0 0.4438966 0 0.6004253)
(1.021506 0 0 0.4301521 0 0.5786606)
(0.9879575 0 0 0.4203779 0 0.5631906)
(0.9700201 -2.433666e-16 0 0.4151473 0 0.5549122)
(0.08485301 0 0 3.317246e-05 0 0.002226595)
(0.8170793 0 0 0.001406645 0 0.0288801)
(1.996349 0 0 0.006925049 0 0.09955889)
(3.501769 0 0 0.018416 0 0.2140872)
(5.173387 0 0 0.03613486 0 0.3632909)
(6.778412 0 0 0.05920852 0 0.5308114)
(8.128909 -9.458578e-33 0 0.08637163 0 0.7002684)
(9.15178 0 0 0.1164175 0 0.8605138)
(9.851395 -1.95595e-17 0 0.1482849 0 1.005244)
(10.27219 0 0 0.1811178 0 1.131912)
(10.47145 0 0 0.2142649 0 1.240396)
(10.50431 -6.684737e-33 0 0.2472512 0 1.331912)
(10.41742 0 0 0.2797424 0 1.408277)
(10.24754 2.144639e-32 0 0.311514 0 1.471473)
(10.02241 0 0 0.3424268 0 1.523415)
(9.762319 -3.843101e-17 0 0.3724112 0 1.565851)
(9.481789 0 0 0.401455 0 1.600332)
(9.191094 6.986936e-17 0 0.4295742 0 1.628175)
(8.897406 0 0 0.4567968 0 1.65048)
(8.605664 -6.252178e-17 0 0.4831542 0 1.668153)
(8.319201 0 0 0.5086768 0 1.681939)
(8.040205 1.107003e-16 0 0.5333912 0 1.692447)
(7.77004 1.038449e-16 0 0.5573191 0 1.700172)
(7.50949 0 0 0.5804768 0 1.70552)
(7.258921 -9.095556e-17 0 0.6028749 0 1.708819)
(7.018407 -8.495782e-17 0 0.6245185 0 1.710336)
(6.787816 -1.585355e-16 0 0.6454073 0 1.710284)
(6.566872 0 0 0.6655358 0 1.708836)
(6.355202 0 0 0.6848937 0 1.706124)
(6.152364 0 0 0.7034658 0 1.702252)
(5.957878 0 0 0.7212328 0 1.697298)
(5.771233 1.105957e-16 0 0.7381709 0 1.691314)
(5.591906 -3.080163e-16 0 0.7542526 0 1.684336)
(5.41937 0 0 0.7694468 0 1.676381)
(5.253101 1.765966e-16 0 0.783719 0 1.667452)
(5.092582 0 0 0.7970319 0 1.657539)
(4.937314 1.514371e-16 0 0.8093454 0 1.646624)
(4.786819 0 0 0.8206177 0 1.63468)
(4.640649 0 0 0.8308056 0 1.621676)
(4.498391 0 0 0.8398656 0 1.60758)
(4.359672 0 0 0.8477541 0 1.592359)
(4.224165 0 0 0.8544289 0 1.575984)
(4.091585 0 0 0.8598491 0 1.558428)
(3.961693 -3.448479e-16 0 0.863976 0 1.539672)
(3.834283 -1.585112e-16 0 0.8667729 0 1.519698)
(3.709184 0 0 0.8682049 0 1.498494)
(3.586248 0 0 0.8682389 0 1.476049)
(3.465345 0 0 0.8668427 0 1.452357)
(3.346361 2.241116e-16 0 0.8639849 0 1.427409)
(3.229194 4.539188e-31 0 0.8596338 0 1.401197)
(3.113755 0 0 0.8537564 0 1.373711)
(2.999962 0 0 0.8463171 0 1.344941)
(2.887751 0 0 0.8372755 0 1.314872)
(2.777073 0 0 0.8265835 0 1.283483)
(2.667902 0 0 0.8141808 0 1.250748)
(2.560242 -4.108383e-32 0 0.7999883 0 1.216628)
(2.454141 0 0 0.7838977 0 1.181069)
(2.349341 0 0 0.7660105 0 1.144133)
(2.24556 -7.088694e-32 0 0.7464762 0 1.105916)
(2.142589 0 0 0.7254438 0 1.06652)
(2.040304 0 0 0.7030692 0 1.026068)
(1.938681 0 0 0.6795228 0 0.9847115)
(1.837813 -4.554966e-16 0 0.654998 0 0.9426441)
(1.737936 -2.036777e-16 0 0.6297203 0 0.9001139)
(1.639459 0 0 0.603957 0 0.8574381)
(1.542987 0 0 0.5780256 0 0.8150179)
(1.449352 -2.867579e-16 0 0.5523023 0 0.7733503)
(1.359626 0 0 0.5272242 0 0.7330349)
(1.27512 0 0 0.503288 0 0.6947723)
(1.197352 0 0 0.481038 0 0.6593489)
(1.127991 0 0 0.4610476 0 0.6276097)
(1.068788 0 0 0.4438966 0 0.6004253)
(1.021506 0 0 0.4301521 0 0.5786606)
(0.9879575 0 0 0.4203779 0 0.5631906)
(0.9700201 -2.433666e-16 0 0.4151473 0 0.5549122)
)
;
    }
    wall
    {
        type            calculated;
        value           uniform (3.333333e-11 0 0 1e-10 0 6.666667e-11);
    }
    frontAndBack
    {
        type            empty;
    }
    middle
    {
        type            symmetryPlane;
        value           nonuniform List<symmTensor> 2((0.9700201 0 0 0.5549122 0 0.5549122) (0.9700201 0 0 0.5549122 0 0.5549122));
    }
}


// ************************************************************************* //
