/*--------------------------------*- C++ -*----------------------------------*\
| =========                 |                                                 |
| \\      /  F ield         | foam-extend: Open Source CFD                    |
|  \\    /   O peration     | Version:     4.0                                |
|   \\  /    A nd           | Web:         http://www.foam-extend.org         |
|    \\/     M anipulation  |                                                 |
\*---------------------------------------------------------------------------*/
FoamFile
{
    version     2.0;
    format      ascii;
    class       volSymmTensorField;
    location    "100";
    object      NLT;
}
// * * * * * * * * * * * * * * * * * * * * * * * * * * * * * * * * * * * * * //

dimensions      [0 0 -1 0 0 0 0];

internalField   nonuniform List<symmTensor> 
150
(
(0.1700756 0 0 8.419397e-05 0 0)
(0.1700787 0 0 8.419555e-05 0 0)
(8.144121 0 0 0.01757523 0 0)
(8.144095 0 0 0.01757518 0 0)
(41.54024 0 0 0.1778404 0 0)
(41.54023 0 0 0.1778404 0 0)
(104.3539 0 0 0.6690234 0 0)
(104.3539 0 0 0.6690235 0 0)
(224.5967 0 0 1.893209 0 0)
(224.5969 0 0 1.893211 0 0)
(391.5416 0 0 4.090066 0 0)
(391.5423 0 0 4.090075 0 0)
(575.7652 -1.828555e-16 0 7.251232 0 0)
(575.7667 1.828561e-16 0 7.251252 0 0)
(768.7408 0 0 11.48649 0 0)
(768.7427 0 0 11.48652 0 0)
(965.3585 0 0 16.90993 0 0)
(965.3613 7.719169e-16 0 16.90998 0 0)
(1161.926 0 0 23.6145 0 0)
(1161.929 0 0 23.61455 0 0)
(1355.179 0 0 31.65135 0 0)
(1355.182 0 0 31.65142 0 0)
(1541.93 3.224509e-15 0 41.01612 0 0)
(1541.933 -3.224516e-15 0 41.0162 0 0)
(1719.031 0 0 51.64224 0 0)
(1719.034 0 0 51.64234 0 0)
(1883.51 -4.51143e-15 0 63.40217 0 0)
(1883.513 4.511438e-15 0 63.40228 0 0)
(2032.726 0 0 76.11527 0 0)
(2032.728 0 0 76.11536 0 0)
(2164.523 5.768089e-15 0 89.56138 0 0)
(2164.525 0 0 89.56147 0 0)
(2277.319 0 0 103.4968 0 0)
(2277.321 0 0 103.4969 0 0)
(2370.018 -1.371727e-14 0 117.659 0 0)
(2370.02 0 0 117.6591 0 0)
(2441.963 0 0 131.7735 0 0)
(2441.965 0 0 131.7736 0 0)
(2492.912 3.071987e-14 0 145.5613 0 0)
(2492.912 -1.535994e-14 0 145.5614 0 0)
(2522.974 0 0 158.746 0 0)
(2522.974 0 0 158.7461 0 0)
(2532.567 -3.267545e-14 0 171.0595 0 0)
(2532.568 0 0 171.0595 0 0)
(2522.364 -3.311966e-14 0 182.2472 0 0)
(2522.364 0 0 182.2473 0 0)
(2493.244 0 0 192.0733 0 0)
(2493.245 0 0 192.0733 0 0)
(2446.26 3.29503e-14 0 200.3241 0 0)
(2446.26 0 0 200.3242 0 0)
(2382.6 3.236334e-14 0 206.8125 0 0)
(2382.601 0 0 206.8125 0 0)
(2303.57 6.293945e-14 0 211.3809 0 0)
(2303.571 0 0 211.381 0 0)
(2210.569 0 0 213.905 0 0)
(2210.571 0 0 213.9052 0 0)
(2105.084 0 0 214.2967 0 0)
(2105.084 0 0 214.2968 0 0)
(1988.681 0 0 212.5078 0 0)
(1988.681 0 0 212.5079 0 0)
(1863.02 -5.086718e-14 0 208.5347 0 0)
(1863.02 5.08672e-14 0 208.5348 0 0)
(1729.86 -4.697525e-14 0 202.4227 0 0)
(1729.861 0 0 202.4229 0 0)
(1591.09 1.28675e-13 0 194.2731 0 0)
(1591.091 0 0 194.2732 0 0)
(1448.755 0 0 184.2499 0 0)
(1448.755 0 0 184.2499 0 0)
(1305.078 -6.897634e-14 0 172.5872 0 0)
(1305.08 0 0 172.5874 0 0)
(1162.481 0 0 159.5959 0 0)
(1162.481 0 0 159.596 0 0)
(1023.55 -1.053832e-13 0 145.6629 0 0)
(1023.551 5.269165e-14 0 145.663 0 0)
(890.9473 0 0 131.2414 0 0)
(890.948 0 0 131.2415 0 0)
(767.2265 0 0 116.823 0 0)
(767.2271 0 0 116.8231 0 0)
(654.5697 0 0 102.8927 0 0)
(654.5703 0 0 102.8928 0 0)
(554.5014 0 0 89.87122 0 0)
(554.5019 0 0 89.8713 0 0)
(467.6785 0 0 78.06317 0 0)
(467.679 0 0 78.06325 0 0)
(393.8537 0 0 67.62834 0 0)
(393.854 0 0 67.62838 0 0)
(332.0319 5.980114e-14 0 58.58726 0 0)
(332.0321 0 0 58.5873 0 0)
(280.7546 2.469218e-14 0 50.85486 0 0)
(280.7548 0 0 50.8549 0 0)
(238.3983 0 0 44.28527 0 0)
(238.3984 0 0 44.28529 0 0)
(203.3984 0 0 38.71116 0 0)
(203.3985 0 0 38.71118 0 0)
(174.3751 0 0 33.97028 0 0)
(174.3752 0 0 33.97029 0 0)
(150.1748 -2.380124e-14 0 29.91855 0 0)
(150.1749 0 0 29.91856 0 0)
(129.8634 -2.000686e-14 0 26.43439 0 0)
(129.8634 2.000685e-14 0 26.43439 0 0)
(112.6971 0 0 23.41799 0 0)
(112.6971 0 0 23.41799 0 0)
(98.08759 0 0 20.7884 0 0)
(98.08758 0 0 20.7884 0 0)
(85.57048 0 0 18.48051 0 0)
(85.57048 0 0 18.48051 0 0)
(74.77787 0 0 16.44177 0 0)
(74.77787 0 0 16.44176 0 0)
(65.4195 0 0 14.63021 0 0)
(65.41949 0 0 14.63021 0 0)
(57.2603 1.460347e-14 0 13.01107 0 0)
(57.26029 -1.460346e-14 0 13.01107 0 0)
(50.09851 0 0 11.55295 0 0)
(50.09851 0 0 11.55295 0 0)
(43.78416 0 0 10.23618 0 0)
(43.78416 0 0 10.23618 0 0)
(38.18699 8.739816e-15 0 9.042903 0 0)
(38.18699 -8.739817e-15 0 9.042904 0 0)
(33.19705 0 0 7.957035 0 0)
(33.19704 0 0 7.957034 0 0)
(28.72689 0 0 6.965514 0 0)
(28.72689 0 0 6.965513 0 0)
(24.70652 0 0 6.05766 0 0)
(24.70651 0 0 6.057659 0 0)
(21.0799 1.654719e-14 0 5.224777 0 0)
(21.0799 0 0 5.224776 0 0)
(17.80281 0 0 4.459932 0 0)
(17.80281 6.71901e-15 0 4.459931 0 0)
(14.84141 0 0 3.757882 0 0)
(14.84141 0 0 3.757882 0 0)
(12.17032 0 0 3.114812 0 0)
(12.17032 0 0 3.114813 0 0)
(9.774261 0 0 2.528951 0 0)
(9.774269 6.561444e-15 0 2.528953 0 0)
(7.638051 0 0 1.9982 0 0)
(7.638059 0 0 1.998202 0 0)
(5.775107 0 0 1.527792 0 0)
(5.775115 0 0 1.527794 0 0)
(4.130939 0 0 1.105034 0 0)
(4.130939 0 0 1.105034 0 0)
(2.869719 0 0 0.7759462 0 0)
(2.869709 0 0 0.7759436 0 0)
(1.518193 0 0 0.4146007 0 0)
(1.518177 0 0 0.4145962 0 0)
(1.435322 0 0 0.3953216 0 0)
(1.435325 0 0 0.3953225 0 0)
(-0.5387971 -0 -0 -0.1493502 -0 -0)
(-0.5387928 -0 -0 -0.1493491 -0 -0)
(0.5163757 5.002475e-16 0 0.1436454 0 0)
(0.5163744 0 0 0.1436451 0 0)
)
;

boundaryField
{
    leftandright
    {
        type            cyclic;
        value           nonuniform List<symmTensor> 
150
(
(0.1700771 0 0 8.419476e-05 0 0)
(8.144108 0 0 0.01757521 0 0)
(41.54024 0 0 0.1778404 0 0)
(104.3539 0 0 0.6690234 0 0)
(224.5968 0 0 1.89321 0 0)
(391.5419 0 0 4.09007 0 0)
(575.7659 1.005508e-31 0 7.251242 0 0)
(768.7418 0 0 11.4865 0 0)
(965.3599 3.859578e-16 0 16.90995 0 0)
(1161.927 0 0 23.61453 0 0)
(1355.181 0 0 31.65139 0 0)
(1541.931 2.527816e-31 0 41.01616 0 0)
(1719.033 0 0 51.64229 0 0)
(1883.511 -1.172239e-30 0 63.40222 0 0)
(2032.727 0 0 76.11532 0 0)
(2164.524 2.884046e-15 0 89.56142 0 0)
(2277.32 0 0 103.4968 0 0)
(2370.019 -6.858636e-15 0 117.6591 0 0)
(2441.964 0 0 131.7735 0 0)
(2492.912 7.679969e-15 0 145.5614 0 0)
(2522.974 0 0 158.7461 0 0)
(2532.568 -1.633773e-14 0 171.0595 0 0)
(2522.364 -1.655983e-14 0 182.2473 0 0)
(2493.244 0 0 192.0733 0 0)
(2446.26 1.647515e-14 0 200.3242 0 0)
(2382.6 1.618167e-14 0 206.8125 0 0)
(2303.57 3.146973e-14 0 211.381 0 0)
(2210.57 0 0 213.9051 0 0)
(2105.084 0 0 214.2967 0 0)
(1988.681 0 0 212.5079 0 0)
(1863.02 0 0 208.5348 0 0)
(1729.86 -2.348763e-14 0 202.4228 0 0)
(1591.09 6.433753e-14 0 194.2731 0 0)
(1448.755 0 0 184.2499 0 0)
(1305.079 -3.448819e-14 0 172.5873 0 0)
(1162.481 0 0 159.5959 0 0)
(1023.55 -2.634582e-14 0 145.6629 0 0)
(890.9477 0 0 131.2414 0 0)
(767.2268 0 0 116.8231 0 0)
(654.57 0 0 102.8927 0 0)
(554.5016 0 0 89.87126 0 0)
(467.6787 0 0 78.06321 0 0)
(393.8538 0 0 67.62836 0 0)
(332.032 2.990058e-14 0 58.58728 0 0)
(280.7547 1.234609e-14 0 50.85488 0 0)
(238.3983 0 0 44.28528 0 0)
(203.3985 0 0 38.71117 0 0)
(174.3752 0 0 33.97029 0 0)
(150.1749 -1.190062e-14 0 29.91856 0 0)
(129.8634 -2.215637e-29 0 26.43439 0 0)
(112.6971 0 0 23.41799 0 0)
(98.08759 0 0 20.7884 0 0)
(85.57048 0 0 18.48051 0 0)
(74.77787 0 0 16.44177 0 0)
(65.41949 0 0 14.63021 0 0)
(57.2603 1.282991e-30 0 13.01107 0 0)
(50.09851 0 0 11.55295 0 0)
(43.78416 0 0 10.23618 0 0)
(38.18699 1.783398e-30 0 9.042904 0 0)
(33.19705 0 0 7.957034 0 0)
(28.72689 0 0 6.965513 0 0)
(24.70652 0 0 6.057659 0 0)
(21.0799 8.273595e-15 0 5.224776 0 0)
(17.80281 3.359505e-15 0 4.459931 0 0)
(14.84141 0 0 3.757882 0 0)
(12.17032 0 0 3.114812 0 0)
(9.774265 3.280721e-15 0 2.528952 0 0)
(7.638055 0 0 1.998201 0 0)
(5.775111 0 0 1.527793 0 0)
(4.130939 0 0 1.105034 0 0)
(2.869714 0 0 0.7759449 0 0)
(1.518185 0 0 0.4145984 0 0)
(1.435324 0 0 0.395322 0 0)
(-0.5387949 -0 -0 -0.1493497 -0 -0)
(0.516375 2.501234e-16 0 0.1436453 0 0)
(0.1700771 0 0 8.419476e-05 0 0)
(8.144108 0 0 0.01757521 0 0)
(41.54024 0 0 0.1778404 0 0)
(104.3539 0 0 0.6690234 0 0)
(224.5968 0 0 1.89321 0 0)
(391.5419 0 0 4.09007 0 0)
(575.7659 1.117231e-31 0 7.251242 0 0)
(768.7418 0 0 11.4865 0 0)
(965.3599 3.859578e-16 0 16.90995 0 0)
(1161.927 0 0 23.61453 0 0)
(1355.181 0 0 31.65139 0 0)
(1541.931 2.527816e-31 0 41.01616 0 0)
(1719.033 0 0 51.64229 0 0)
(1883.511 -1.172239e-30 0 63.40222 0 0)
(2032.727 0 0 76.11532 0 0)
(2164.524 2.884046e-15 0 89.56142 0 0)
(2277.32 0 0 103.4968 0 0)
(2370.019 -6.858636e-15 0 117.6591 0 0)
(2441.964 0 0 131.7735 0 0)
(2492.912 7.679969e-15 0 145.5614 0 0)
(2522.974 0 0 158.7461 0 0)
(2532.568 -1.633773e-14 0 171.0595 0 0)
(2522.364 -1.655983e-14 0 182.2473 0 0)
(2493.244 0 0 192.0733 0 0)
(2446.26 1.647515e-14 0 200.3242 0 0)
(2382.6 1.618167e-14 0 206.8125 0 0)
(2303.57 3.146973e-14 0 211.381 0 0)
(2210.57 0 0 213.9051 0 0)
(2105.084 0 0 214.2967 0 0)
(1988.681 0 0 212.5079 0 0)
(1863.02 0 0 208.5348 0 0)
(1729.86 -2.348763e-14 0 202.4228 0 0)
(1591.09 6.433753e-14 0 194.2731 0 0)
(1448.755 0 0 184.2499 0 0)
(1305.079 -3.448819e-14 0 172.5873 0 0)
(1162.481 0 0 159.5959 0 0)
(1023.55 -2.634582e-14 0 145.6629 0 0)
(890.9477 0 0 131.2414 0 0)
(767.2268 0 0 116.8231 0 0)
(654.57 0 0 102.8927 0 0)
(554.5016 0 0 89.87126 0 0)
(467.6787 0 0 78.06321 0 0)
(393.8538 0 0 67.62836 0 0)
(332.032 2.990058e-14 0 58.58728 0 0)
(280.7547 1.234609e-14 0 50.85488 0 0)
(238.3983 0 0 44.28528 0 0)
(203.3985 0 0 38.71117 0 0)
(174.3752 0 0 33.97029 0 0)
(150.1749 -1.190062e-14 0 29.91856 0 0)
(129.8634 -2.215637e-29 0 26.43439 0 0)
(112.6971 0 0 23.41799 0 0)
(98.08759 0 0 20.7884 0 0)
(85.57048 0 0 18.48051 0 0)
(74.77787 0 0 16.44177 0 0)
(65.41949 0 0 14.63021 0 0)
(57.2603 1.282991e-30 0 13.01107 0 0)
(50.09851 0 0 11.55295 0 0)
(43.78416 0 0 10.23618 0 0)
(38.18699 1.783398e-30 0 9.042904 0 0)
(33.19705 0 0 7.957034 0 0)
(28.72689 0 0 6.965513 0 0)
(24.70652 0 0 6.057659 0 0)
(21.0799 8.273595e-15 0 5.224776 0 0)
(17.80281 3.359505e-15 0 4.459931 0 0)
(14.84141 0 0 3.757882 0 0)
(12.17032 0 0 3.114812 0 0)
(9.774265 3.280721e-15 0 2.528952 0 0)
(7.638055 0 0 1.998201 0 0)
(5.775111 0 0 1.527793 0 0)
(4.130939 0 0 1.105034 0 0)
(2.869714 0 0 0.7759449 0 0)
(1.518185 0 0 0.4145984 0 0)
(1.435324 0 0 0.395322 0 0)
(-0.5387949 -0 -0 -0.1493497 -0 -0)
(0.516375 2.501234e-16 0 0.1436453 0 0)
)
;
    }
    wall
    {
        type            calculated;
        value           nonuniform List<symmTensor> 2((4.644834e-07 0 0 3.019142e-07 0 0) (4.644913e-07 0 0 3.019194e-07 0 0));
    }
    frontAndBack
    {
        type            empty;
    }
    middle
    {
        type            symmetryPlane;
        value           nonuniform List<symmTensor> 2((0.5163757 0 0 0.1436454 0 0) (0.5163744 0 0 0.1436451 0 0));
    }
}


// ************************************************************************* //
