/*--------------------------------*- C++ -*----------------------------------*\
| =========                 |                                                 |
| \\      /  F ield         | foam-extend: Open Source CFD                    |
|  \\    /   O peration     | Version:     4.0                                |
|   \\  /    A nd           | Web:         http://www.foam-extend.org         |
|    \\/     M anipulation  |                                                 |
\*---------------------------------------------------------------------------*/
FoamFile
{
    version     2.0;
    format      ascii;
    class       volSymmTensorField;
    location    "100";
    object      NLTPlus;
}
// * * * * * * * * * * * * * * * * * * * * * * * * * * * * * * * * * * * * * //

dimensions      [0 2 -2 0 0 0 0];

internalField   nonuniform List<symmTensor> 
150
(
(0.0001700756 0 0 8.419397e-08 0 0)
(0.0001700787 0 0 8.419555e-08 0 0)
(0.008144121 0 0 1.757523e-05 0 0)
(0.008144095 0 0 1.757518e-05 0 0)
(0.04154024 0 0 0.0001778404 0 0)
(0.04154023 0 0 0.0001778404 0 0)
(0.1043539 0 0 0.0006690234 0 0)
(0.1043539 0 0 0.0006690235 0 0)
(0.2245967 0 0 0.001893209 0 0)
(0.2245969 0 0 0.001893211 0 0)
(0.3915416 0 0 0.004090066 0 0)
(0.3915423 0 0 0.004090075 0 0)
(0.5757652 -1.828555e-19 0 0.007251232 0 0)
(0.5757667 1.828561e-19 0 0.007251252 0 0)
(0.7687408 0 0 0.01148649 0 0)
(0.7687427 0 0 0.01148652 0 0)
(0.9653585 0 0 0.01690993 0 0)
(0.9653613 7.719169e-19 0 0.01690998 0 0)
(1.161926 0 0 0.0236145 0 0)
(1.161929 0 0 0.02361455 0 0)
(1.355179 0 0 0.03165135 0 0)
(1.355182 0 0 0.03165142 0 0)
(1.54193 3.224509e-18 0 0.04101612 0 0)
(1.541933 -3.224516e-18 0 0.0410162 0 0)
(1.719031 0 0 0.05164224 0 0)
(1.719034 0 0 0.05164234 0 0)
(1.88351 -4.51143e-18 0 0.06340217 0 0)
(1.883513 4.511438e-18 0 0.06340228 0 0)
(2.032726 0 0 0.07611527 0 0)
(2.032728 0 0 0.07611536 0 0)
(2.164523 5.768089e-18 0 0.08956138 0 0)
(2.164525 0 0 0.08956147 0 0)
(2.277319 0 0 0.1034968 0 0)
(2.277321 0 0 0.1034969 0 0)
(2.370018 -1.371727e-17 0 0.117659 0 0)
(2.37002 0 0 0.1176591 0 0)
(2.441963 0 0 0.1317735 0 0)
(2.441965 0 0 0.1317736 0 0)
(2.492912 3.071987e-17 0 0.1455613 0 0)
(2.492912 -1.535994e-17 0 0.1455614 0 0)
(2.522974 0 0 0.158746 0 0)
(2.522974 0 0 0.1587461 0 0)
(2.532567 -3.267545e-17 0 0.1710595 0 0)
(2.532568 0 0 0.1710595 0 0)
(2.522364 -3.311966e-17 0 0.1822472 0 0)
(2.522364 0 0 0.1822473 0 0)
(2.493244 0 0 0.1920733 0 0)
(2.493245 0 0 0.1920733 0 0)
(2.44626 3.29503e-17 0 0.2003241 0 0)
(2.44626 0 0 0.2003242 0 0)
(2.3826 3.236334e-17 0 0.2068125 0 0)
(2.382601 0 0 0.2068125 0 0)
(2.30357 6.293945e-17 0 0.2113809 0 0)
(2.303571 0 0 0.211381 0 0)
(2.210569 0 0 0.213905 0 0)
(2.210571 0 0 0.2139052 0 0)
(2.105084 0 0 0.2142967 0 0)
(2.105084 0 0 0.2142968 0 0)
(1.988681 0 0 0.2125078 0 0)
(1.988681 0 0 0.2125079 0 0)
(1.86302 -5.086718e-17 0 0.2085347 0 0)
(1.86302 5.08672e-17 0 0.2085348 0 0)
(1.72986 -4.697525e-17 0 0.2024227 0 0)
(1.729861 0 0 0.2024229 0 0)
(1.59109 1.28675e-16 0 0.1942731 0 0)
(1.591091 0 0 0.1942732 0 0)
(1.448755 0 0 0.1842499 0 0)
(1.448755 0 0 0.1842499 0 0)
(1.305078 -6.897634e-17 0 0.1725872 0 0)
(1.30508 0 0 0.1725874 0 0)
(1.162481 0 0 0.1595959 0 0)
(1.162481 0 0 0.159596 0 0)
(1.02355 -1.053832e-16 0 0.1456629 0 0)
(1.023551 5.269165e-17 0 0.145663 0 0)
(0.8909473 0 0 0.1312414 0 0)
(0.890948 0 0 0.1312415 0 0)
(0.7672265 0 0 0.116823 0 0)
(0.7672271 0 0 0.1168231 0 0)
(0.6545697 0 0 0.1028927 0 0)
(0.6545703 0 0 0.1028928 0 0)
(0.5545014 0 0 0.08987122 0 0)
(0.5545019 0 0 0.0898713 0 0)
(0.4676785 0 0 0.07806317 0 0)
(0.467679 0 0 0.07806325 0 0)
(0.3938537 0 0 0.06762834 0 0)
(0.393854 0 0 0.06762838 0 0)
(0.3320319 5.980114e-17 0 0.05858726 0 0)
(0.3320321 0 0 0.0585873 0 0)
(0.2807546 2.469218e-17 0 0.05085486 0 0)
(0.2807548 0 0 0.0508549 0 0)
(0.2383983 0 0 0.04428527 0 0)
(0.2383984 0 0 0.04428529 0 0)
(0.2033984 0 0 0.03871116 0 0)
(0.2033985 0 0 0.03871118 0 0)
(0.1743751 0 0 0.03397028 0 0)
(0.1743752 0 0 0.03397029 0 0)
(0.1501748 -2.380124e-17 0 0.02991855 0 0)
(0.1501749 0 0 0.02991856 0 0)
(0.1298634 -2.000686e-17 0 0.02643439 0 0)
(0.1298634 2.000685e-17 0 0.02643439 0 0)
(0.1126971 0 0 0.02341799 0 0)
(0.1126971 0 0 0.02341799 0 0)
(0.09808759 0 0 0.0207884 0 0)
(0.09808758 0 0 0.0207884 0 0)
(0.08557048 0 0 0.01848051 0 0)
(0.08557048 0 0 0.01848051 0 0)
(0.07477787 0 0 0.01644177 0 0)
(0.07477787 0 0 0.01644176 0 0)
(0.0654195 0 0 0.01463021 0 0)
(0.06541949 0 0 0.01463021 0 0)
(0.0572603 1.460347e-17 0 0.01301107 0 0)
(0.05726029 -1.460346e-17 0 0.01301107 0 0)
(0.05009851 0 0 0.01155295 0 0)
(0.05009851 0 0 0.01155295 0 0)
(0.04378416 0 0 0.01023618 0 0)
(0.04378416 0 0 0.01023618 0 0)
(0.03818699 8.739816e-18 0 0.009042903 0 0)
(0.03818699 -8.739817e-18 0 0.009042904 0 0)
(0.03319705 0 0 0.007957035 0 0)
(0.03319704 0 0 0.007957034 0 0)
(0.02872689 0 0 0.006965514 0 0)
(0.02872689 0 0 0.006965513 0 0)
(0.02470652 0 0 0.00605766 0 0)
(0.02470651 0 0 0.006057659 0 0)
(0.0210799 1.654719e-17 0 0.005224777 0 0)
(0.0210799 0 0 0.005224776 0 0)
(0.01780281 0 0 0.004459932 0 0)
(0.01780281 6.71901e-18 0 0.004459931 0 0)
(0.01484141 0 0 0.003757882 0 0)
(0.01484141 0 0 0.003757882 0 0)
(0.01217032 0 0 0.003114812 0 0)
(0.01217032 0 0 0.003114813 0 0)
(0.009774261 0 0 0.002528951 0 0)
(0.009774269 6.561444e-18 0 0.002528953 0 0)
(0.007638051 0 0 0.0019982 0 0)
(0.007638059 0 0 0.001998202 0 0)
(0.005775107 0 0 0.001527792 0 0)
(0.005775115 0 0 0.001527794 0 0)
(0.004130939 0 0 0.001105034 0 0)
(0.004130939 0 0 0.001105034 0 0)
(0.002869719 0 0 0.0007759462 0 0)
(0.002869709 0 0 0.0007759436 0 0)
(0.001518193 0 0 0.0004146007 0 0)
(0.001518177 0 0 0.0004145962 0 0)
(0.001435322 0 0 0.0003953216 0 0)
(0.001435325 0 0 0.0003953225 0 0)
(-0.0005387971 -0 -0 -0.0001493502 -0 -0)
(-0.0005387928 -0 -0 -0.0001493491 -0 -0)
(0.0005163757 5.002475e-19 0 0.0001436454 0 0)
(0.0005163744 0 0 0.0001436451 0 0)
)
;

boundaryField
{
    leftandright
    {
        type            cyclic;
        value           nonuniform List<symmTensor> 
150
(
(0.0001700771 0 0 8.419476e-08 0 0)
(0.008144108 0 0 1.757521e-05 0 0)
(0.04154024 0 0 0.0001778404 0 0)
(0.1043539 0 0 0.0006690234 0 0)
(0.2245968 0 0 0.00189321 0 0)
(0.3915419 0 0 0.00409007 0 0)
(0.5757659 1.005508e-34 0 0.007251242 0 0)
(0.7687418 0 0 0.0114865 0 0)
(0.9653599 3.859578e-19 0 0.01690995 0 0)
(1.161927 0 0 0.02361453 0 0)
(1.355181 0 0 0.03165139 0 0)
(1.541931 2.527816e-34 0 0.04101616 0 0)
(1.719033 0 0 0.05164229 0 0)
(1.883511 -1.172239e-33 0 0.06340222 0 0)
(2.032727 0 0 0.07611532 0 0)
(2.164524 2.884046e-18 0 0.08956142 0 0)
(2.27732 0 0 0.1034968 0 0)
(2.370019 -6.858636e-18 0 0.1176591 0 0)
(2.441964 0 0 0.1317735 0 0)
(2.492912 7.679969e-18 0 0.1455614 0 0)
(2.522974 0 0 0.1587461 0 0)
(2.532568 -1.633773e-17 0 0.1710595 0 0)
(2.522364 -1.655983e-17 0 0.1822473 0 0)
(2.493244 0 0 0.1920733 0 0)
(2.44626 1.647515e-17 0 0.2003242 0 0)
(2.3826 1.618167e-17 0 0.2068125 0 0)
(2.30357 3.146973e-17 0 0.211381 0 0)
(2.21057 0 0 0.2139051 0 0)
(2.105084 0 0 0.2142967 0 0)
(1.988681 0 0 0.2125079 0 0)
(1.86302 0 0 0.2085348 0 0)
(1.72986 -2.348763e-17 0 0.2024228 0 0)
(1.59109 6.433753e-17 0 0.1942731 0 0)
(1.448755 0 0 0.1842499 0 0)
(1.305079 -3.448819e-17 0 0.1725873 0 0)
(1.162481 0 0 0.1595959 0 0)
(1.02355 -2.634582e-17 0 0.1456629 0 0)
(0.8909477 0 0 0.1312414 0 0)
(0.7672268 0 0 0.1168231 0 0)
(0.65457 0 0 0.1028927 0 0)
(0.5545016 0 0 0.08987126 0 0)
(0.4676787 0 0 0.07806321 0 0)
(0.3938538 0 0 0.06762836 0 0)
(0.332032 2.990058e-17 0 0.05858728 0 0)
(0.2807547 1.234609e-17 0 0.05085488 0 0)
(0.2383983 0 0 0.04428528 0 0)
(0.2033985 0 0 0.03871117 0 0)
(0.1743752 0 0 0.03397029 0 0)
(0.1501749 -1.190062e-17 0 0.02991856 0 0)
(0.1298634 -2.215637e-32 0 0.02643439 0 0)
(0.1126971 0 0 0.02341799 0 0)
(0.09808759 0 0 0.0207884 0 0)
(0.08557048 0 0 0.01848051 0 0)
(0.07477787 0 0 0.01644177 0 0)
(0.06541949 0 0 0.01463021 0 0)
(0.0572603 1.282991e-33 0 0.01301107 0 0)
(0.05009851 0 0 0.01155295 0 0)
(0.04378416 0 0 0.01023618 0 0)
(0.03818699 1.783398e-33 0 0.009042904 0 0)
(0.03319705 0 0 0.007957034 0 0)
(0.02872689 0 0 0.006965513 0 0)
(0.02470652 0 0 0.006057659 0 0)
(0.0210799 8.273595e-18 0 0.005224776 0 0)
(0.01780281 3.359505e-18 0 0.004459931 0 0)
(0.01484141 0 0 0.003757882 0 0)
(0.01217032 0 0 0.003114812 0 0)
(0.009774265 3.280721e-18 0 0.002528952 0 0)
(0.007638055 0 0 0.001998201 0 0)
(0.005775111 0 0 0.001527793 0 0)
(0.004130939 0 0 0.001105034 0 0)
(0.002869714 0 0 0.0007759449 0 0)
(0.001518185 0 0 0.0004145984 0 0)
(0.001435324 0 0 0.000395322 0 0)
(-0.0005387949 -0 -0 -0.0001493497 -0 -0)
(0.000516375 2.501234e-19 0 0.0001436453 0 0)
(0.0001700771 0 0 8.419476e-08 0 0)
(0.008144108 0 0 1.757521e-05 0 0)
(0.04154024 0 0 0.0001778404 0 0)
(0.1043539 0 0 0.0006690234 0 0)
(0.2245968 0 0 0.00189321 0 0)
(0.3915419 0 0 0.00409007 0 0)
(0.5757659 1.117231e-34 0 0.007251242 0 0)
(0.7687418 0 0 0.0114865 0 0)
(0.9653599 3.859578e-19 0 0.01690995 0 0)
(1.161927 0 0 0.02361453 0 0)
(1.355181 0 0 0.03165139 0 0)
(1.541931 2.527816e-34 0 0.04101616 0 0)
(1.719033 0 0 0.05164229 0 0)
(1.883511 -1.172239e-33 0 0.06340222 0 0)
(2.032727 0 0 0.07611532 0 0)
(2.164524 2.884046e-18 0 0.08956142 0 0)
(2.27732 0 0 0.1034968 0 0)
(2.370019 -6.858636e-18 0 0.1176591 0 0)
(2.441964 0 0 0.1317735 0 0)
(2.492912 7.679969e-18 0 0.1455614 0 0)
(2.522974 0 0 0.1587461 0 0)
(2.532568 -1.633773e-17 0 0.1710595 0 0)
(2.522364 -1.655983e-17 0 0.1822473 0 0)
(2.493244 0 0 0.1920733 0 0)
(2.44626 1.647515e-17 0 0.2003242 0 0)
(2.3826 1.618167e-17 0 0.2068125 0 0)
(2.30357 3.146973e-17 0 0.211381 0 0)
(2.21057 0 0 0.2139051 0 0)
(2.105084 0 0 0.2142967 0 0)
(1.988681 0 0 0.2125079 0 0)
(1.86302 0 0 0.2085348 0 0)
(1.72986 -2.348763e-17 0 0.2024228 0 0)
(1.59109 6.433753e-17 0 0.1942731 0 0)
(1.448755 0 0 0.1842499 0 0)
(1.305079 -3.448819e-17 0 0.1725873 0 0)
(1.162481 0 0 0.1595959 0 0)
(1.02355 -2.634582e-17 0 0.1456629 0 0)
(0.8909477 0 0 0.1312414 0 0)
(0.7672268 0 0 0.1168231 0 0)
(0.65457 0 0 0.1028927 0 0)
(0.5545016 0 0 0.08987126 0 0)
(0.4676787 0 0 0.07806321 0 0)
(0.3938538 0 0 0.06762836 0 0)
(0.332032 2.990058e-17 0 0.05858728 0 0)
(0.2807547 1.234609e-17 0 0.05085488 0 0)
(0.2383983 0 0 0.04428528 0 0)
(0.2033985 0 0 0.03871117 0 0)
(0.1743752 0 0 0.03397029 0 0)
(0.1501749 -1.190062e-17 0 0.02991856 0 0)
(0.1298634 -2.215637e-32 0 0.02643439 0 0)
(0.1126971 0 0 0.02341799 0 0)
(0.09808759 0 0 0.0207884 0 0)
(0.08557048 0 0 0.01848051 0 0)
(0.07477787 0 0 0.01644177 0 0)
(0.06541949 0 0 0.01463021 0 0)
(0.0572603 1.282991e-33 0 0.01301107 0 0)
(0.05009851 0 0 0.01155295 0 0)
(0.04378416 0 0 0.01023618 0 0)
(0.03818699 1.783398e-33 0 0.009042904 0 0)
(0.03319705 0 0 0.007957034 0 0)
(0.02872689 0 0 0.006965513 0 0)
(0.02470652 0 0 0.006057659 0 0)
(0.0210799 8.273595e-18 0 0.005224776 0 0)
(0.01780281 3.359505e-18 0 0.004459931 0 0)
(0.01484141 0 0 0.003757882 0 0)
(0.01217032 0 0 0.003114812 0 0)
(0.009774265 3.280721e-18 0 0.002528952 0 0)
(0.007638055 0 0 0.001998201 0 0)
(0.005775111 0 0 0.001527793 0 0)
(0.004130939 0 0 0.001105034 0 0)
(0.002869714 0 0 0.0007759449 0 0)
(0.001518185 0 0 0.0004145984 0 0)
(0.001435324 0 0 0.000395322 0 0)
(-0.0005387949 -0 -0 -0.0001493497 -0 -0)
(0.000516375 2.501234e-19 0 0.0001436453 0 0)
)
;
    }
    wall
    {
        type            calculated;
        value           nonuniform List<symmTensor> 2((4.644834e-10 0 0 3.019142e-10 0 0) (4.644913e-10 0 0 3.019194e-10 0 0));
    }
    frontAndBack
    {
        type            empty;
    }
    middle
    {
        type            symmetryPlane;
        value           nonuniform List<symmTensor> 2((0.0005163757 0 0 0.0001436454 0 0) (0.0005163744 0 0 0.0001436451 0 0));
    }
}


// ************************************************************************* //
