/*--------------------------------*- C++ -*----------------------------------*\
| =========                 |                                                 |
| \\      /  F ield         | foam-extend: Open Source CFD                    |
|  \\    /   O peration     | Version:     4.0                                |
|   \\  /    A nd           | Web:         http://www.foam-extend.org         |
|    \\/     M anipulation  |                                                 |
\*---------------------------------------------------------------------------*/
FoamFile
{
    version     2.0;
    format      ascii;
    class       volScalarField;
    location    "100";
    object      nut;
}
// * * * * * * * * * * * * * * * * * * * * * * * * * * * * * * * * * * * * * //

dimensions      [0 2 -1 0 0 0 0];

internalField   nonuniform List<scalar> 
150
(
1.077029e-07
1.077029e-07
5.198562e-06
5.198564e-06
2.697435e-05
2.697435e-05
7.00175e-05
7.001751e-05
0.0001597175
0.0001597176
0.0003022379
0.000302238
0.0004879997
0.0004879999
0.0007174673
0.0007174675
0.0009921399
0.0009921402
0.001313743
0.001313743
0.001683919
0.001683919
0.002104139
0.00210414
0.002575712
0.002575713
0.003099854
0.003099854
0.003677794
0.003677794
0.004310919
0.00431092
0.005000914
0.005000915
0.005749625
0.005749626
0.006558976
0.006558978
0.00743091
0.007430911
0.008367339
0.00836734
0.00937011
0.009370112
0.01044096
0.01044096
0.0115815
0.0115815
0.01279313
0.01279313
0.01407707
0.01407707
0.0154343
0.0154343
0.01686549
0.0168655
0.01837107
0.01837107
0.01995109
0.0199511
0.02160532
0.02160532
0.02333314
0.02333315
0.02513362
0.02513362
0.02700545
0.02700546
0.02894702
0.02894702
0.03095636
0.03095637
0.03303123
0.03303124
0.03516907
0.03516907
0.037367
0.03736701
0.03962187
0.03962188
0.04193016
0.04193016
0.04428796
0.04428796
0.04669092
0.04669092
0.04913422
0.04913422
0.05161245
0.05161245
0.05411962
0.05411962
0.05664905
0.05664906
0.05919338
0.05919338
0.06174445
0.06174445
0.06429323
0.06429323
0.06682974
0.06682974
0.06934286
0.06934286
0.07182014
0.07182014
0.0742474
0.0742474
0.07660825
0.07660825
0.07888327
0.07888327
0.08104872
0.08104872
0.08310132
0.08310132
0.08504465
0.08504465
0.08688474
0.08688474
0.08863117
0.08863117
0.09029837
0.09029836
0.09190698
0.09190697
0.09348539
0.09348538
0.09507093
0.09507093
0.09671038
0.09671038
0.09845873
0.09845873
0.1003747
0.1003747
0.1025109
0.1025109
0.1048957
0.1048957
0.1075062
0.1075062
0.1102335
0.1102335
0.112852
0.112852
0.1150116
0.1150116
0.1162869
0.1162869
)
;

boundaryField
{
    leftandright
    {
        type            cyclic;
        value           nonuniform List<scalar> 
150
(
1.077029e-07
5.198563e-06
2.697435e-05
7.00175e-05
0.0001597176
0.000302238
0.0004879998
0.0007174674
0.0009921401
0.001313743
0.001683919
0.002104139
0.002575713
0.003099854
0.003677794
0.004310919
0.005000914
0.005749626
0.006558977
0.00743091
0.00836734
0.009370111
0.01044096
0.0115815
0.01279313
0.01407707
0.0154343
0.0168655
0.01837107
0.0199511
0.02160532
0.02333315
0.02513362
0.02700545
0.02894702
0.03095637
0.03303123
0.03516907
0.03736701
0.03962188
0.04193016
0.04428796
0.04669092
0.04913422
0.05161245
0.05411962
0.05664905
0.05919338
0.06174445
0.06429323
0.06682974
0.06934286
0.07182014
0.0742474
0.07660825
0.07888327
0.08104872
0.08310132
0.08504465
0.08688474
0.08863117
0.09029836
0.09190698
0.09348539
0.09507093
0.09671038
0.09845873
0.1003747
0.1025109
0.1048957
0.1075062
0.1102335
0.112852
0.1150116
0.1162869
1.077029e-07
5.198563e-06
2.697435e-05
7.00175e-05
0.0001597176
0.000302238
0.0004879998
0.0007174674
0.0009921401
0.001313743
0.001683919
0.002104139
0.002575713
0.003099854
0.003677794
0.004310919
0.005000914
0.005749626
0.006558977
0.00743091
0.00836734
0.009370111
0.01044096
0.0115815
0.01279313
0.01407707
0.0154343
0.0168655
0.01837107
0.0199511
0.02160532
0.02333315
0.02513362
0.02700545
0.02894702
0.03095637
0.03303123
0.03516907
0.03736701
0.03962188
0.04193016
0.04428796
0.04669092
0.04913422
0.05161245
0.05411962
0.05664905
0.05919338
0.06174445
0.06429323
0.06682974
0.06934286
0.07182014
0.0742474
0.07660825
0.07888327
0.08104872
0.08310132
0.08504465
0.08688474
0.08863117
0.09029836
0.09190698
0.09348539
0.09507093
0.09671038
0.09845873
0.1003747
0.1025109
0.1048957
0.1075062
0.1102335
0.112852
0.1150116
0.1162869
)
;
    }
    wall
    {
        type            nutLowReWallFunction;
        Cmu             0.09;
        kappa           0.41;
        E               9.8;
        value           nonuniform List<scalar> 2(2.935343e-13 2.935342e-13);
    }
    frontAndBack
    {
        type            empty;
    }
    middle
    {
        type            symmetryPlane;
        value           nonuniform List<scalar> 2(0.1162869 0.1162869);
    }
}


// ************************************************************************* //
