/*--------------------------------*- C++ -*----------------------------------*\
| =========                 |                                                 |
| \\      /  F ield         | foam-extend: Open Source CFD                    |
|  \\    /   O peration     | Version:     4.0                                |
|   \\  /    A nd           | Web:         http://www.foam-extend.org         |
|    \\/     M anipulation  |                                                 |
\*---------------------------------------------------------------------------*/
FoamFile
{
    version     2.0;
    format      ascii;
    class       volScalarField;
    location    "100";
    object      p;
}
// * * * * * * * * * * * * * * * * * * * * * * * * * * * * * * * * * * * * * //

dimensions      [0 2 -2 0 0 0 0];

internalField   nonuniform List<scalar> 
150
(
-1.839723e-09
-0.04999995
-0.001995865
-0.05199586
-0.007599779
-0.05759979
-0.01889601
-0.06889603
-0.0363185
-0.08631852
-0.05908497
-0.109085
-0.08592093
-0.135921
-0.1155536
-0.1655536
-0.1468964
-0.1968965
-0.1790804
-0.2290804
-0.2114467
-0.2614468
-0.2435194
-0.2935194
-0.2749702
-0.3249702
-0.3055865
-0.3555866
-0.3352475
-0.3852476
-0.3639063
-0.4139063
-0.3915722
-0.4415722
-0.4182875
-0.4682876
-0.4441084
-0.4941085
-0.4690946
-0.5190947
-0.4933043
-0.5433044
-0.5167912
-0.5667912
-0.5396025
-0.5896025
-0.5617784
-0.6117784
-0.583351
-0.6333511
-0.6043445
-0.6543445
-0.6247743
-0.6747744
-0.6446477
-0.6946477
-0.6639632
-0.7139632
-0.6827105
-0.7327106
-0.7008708
-0.7508709
-0.718416
-0.768416
-0.7353083
-0.7853083
-0.7515002
-0.8015002
-0.7669339
-0.8169339
-0.781541
-0.831541
-0.7952429
-0.8452429
-0.8079527
-0.8579527
-0.8195785
-0.8695785
-0.8300286
-0.8800286
-0.8392178
-0.8892178
-0.8470734
-0.8970734
-0.8535381
-0.9035381
-0.8585706
-0.9085706
-0.8621423
-0.9121423
-0.8642326
-0.9142326
-0.864825
-0.914825
-0.8639037
-0.9139037
-0.8614516
-0.9114516
-0.8574494
-0.9074494
-0.851874
-0.901874
-0.844698
-0.894698
-0.8358876
-0.8858876
-0.8254005
-0.8754005
-0.8131787
-0.8631787
-0.799133
-0.849133
-0.7832005
-0.8332005
-0.7654489
-0.8154489
-0.746033
-0.796033
-0.7251086
-0.7751086
-0.7028329
-0.7528329
-0.679377
-0.729377
-0.6549353
-0.7049353
-0.629734
-0.679734
-0.6040412
-0.6540412
-0.5781728
-0.6281728
-0.5525151
-0.6025151
-0.5274639
-0.5774639
-0.5036777
-0.5536777
-0.4810988
-0.5310988
-0.4624229
-0.5124229
-0.4411287
-0.4911287
-0.4406282
-0.4906282
-0.3877021
-0.4377021
-0.5028657
-0.5528657
)
;

boundaryField
{
    leftandright
    {
        type            fan;
        patchType       cyclic;
        f               1(-0.1);
        value           nonuniform List<scalar> 
150
(
0.02500002
0.02300414
0.01740021
0.00610398
-0.01131851
-0.03408498
-0.06092094
-0.09055362
-0.1218964
-0.1540804
-0.1864467
-0.2185194
-0.2499702
-0.2805865
-0.3102475
-0.3389063
-0.3665722
-0.3932875
-0.4191084
-0.4440947
-0.4683044
-0.4917912
-0.5146025
-0.5367784
-0.5583511
-0.5793445
-0.5997744
-0.6196477
-0.6389632
-0.6577106
-0.6758709
-0.693416
-0.7103083
-0.7265002
-0.7419339
-0.756541
-0.7702429
-0.7829527
-0.7945785
-0.8050286
-0.8142178
-0.8220734
-0.8285381
-0.8335706
-0.8371423
-0.8392326
-0.839825
-0.8389037
-0.8364516
-0.8324494
-0.826874
-0.819698
-0.8108876
-0.8004005
-0.7881787
-0.774133
-0.7582005
-0.7404489
-0.721033
-0.7001086
-0.6778329
-0.654377
-0.6299353
-0.604734
-0.5790412
-0.5531728
-0.5275151
-0.5024639
-0.4786777
-0.4560988
-0.4374229
-0.4161287
-0.4156282
-0.3627021
-0.4778657
-0.07499998
-0.07699586
-0.08259979
-0.09389602
-0.1113185
-0.134085
-0.1609209
-0.1905536
-0.2218964
-0.2540804
-0.2864467
-0.3185194
-0.3499702
-0.3805865
-0.4102475
-0.4389063
-0.4665722
-0.4932875
-0.5191084
-0.5440947
-0.5683044
-0.5917912
-0.6146025
-0.6367784
-0.6583511
-0.6793445
-0.6997744
-0.7196477
-0.7389632
-0.7577106
-0.7758709
-0.793416
-0.8103083
-0.8265002
-0.8419339
-0.856541
-0.8702429
-0.8829527
-0.8945785
-0.9050286
-0.9142178
-0.9220734
-0.9285381
-0.9335706
-0.9371423
-0.9392326
-0.939825
-0.9389037
-0.9364516
-0.9324494
-0.926874
-0.919698
-0.9108876
-0.9004005
-0.8881787
-0.874133
-0.8582005
-0.8404489
-0.821033
-0.8001086
-0.7778329
-0.754377
-0.7299353
-0.704734
-0.6790412
-0.6531728
-0.6275151
-0.6024639
-0.5786777
-0.5560988
-0.5374229
-0.5161287
-0.5156282
-0.4627021
-0.5778657
)
;
    }
    wall
    {
        type            zeroGradient;
    }
    frontAndBack
    {
        type            empty;
    }
    middle
    {
        type            symmetryPlane;
        value           nonuniform List<scalar> 2(-0.5028657 -0.5528657);
    }
}


// ************************************************************************* //
