/*--------------------------------*- C++ -*----------------------------------*\
| =========                 |                                                 |
| \\      /  F ield         | foam-extend: Open Source CFD                    |
|  \\    /   O peration     | Version:     4.0                                |
|   \\  /    A nd           | Web:         http://www.foam-extend.org         |
|    \\/     M anipulation  |                                                 |
\*---------------------------------------------------------------------------*/
FoamFile
{
    version     2.0;
    format      ascii;
    class       surfaceScalarField;
    location    "100";
    object      phi;
}
// * * * * * * * * * * * * * * * * * * * * * * * * * * * * * * * * * * * * * //

dimensions      [0 3 -1 0 0 0 0];

internalField   nonuniform List<scalar> 
223
(
8.187052e-05
1.107092e-11
7.534945e-13
0.0002618369
1.223446e-11
2.313568e-12
0.0004663777
1.363126e-11
4.156668e-12
0.0006939499
1.457631e-11
5.446174e-12
0.0009395547
1.471573e-11
5.843717e-12
0.001195625
1.425975e-11
5.594557e-12
0.001457078
1.355893e-11
5.06323e-12
0.001721843
1.284364e-11
4.482397e-12
0.001989335
1.222078e-11
3.959773e-12
0.002259908
1.171843e-11
3.526947e-12
0.002534474
1.133104e-11
3.186836e-12
0.002814251
1.104431e-11
2.932971e-12
0.003100609
1.08428e-11
2.759434e-12
0.003394974
1.071003e-11
2.667446e-12
0.003698779
1.062754e-11
2.651895e-12
0.004013443
1.057402e-11
2.694612e-12
0.004340358
1.052975e-11
2.783661e-12
0.004680895
1.047957e-11
2.92034e-12
0.005036409
1.041325e-11
3.107793e-12
0.005408254
1.032427e-11
3.346359e-12
0.005797792
1.020899e-11
3.632719e-12
0.006206406
1.006675e-11
3.959674e-12
0.006635508
9.894328e-12
4.322013e-12
0.007086552
9.686602e-12
4.716614e-12
0.007561036
9.44182e-12
5.137954e-12
0.008060516
9.159078e-12
5.581569e-12
0.008586614
8.846905e-12
6.036348e-12
0.00914102
8.52282e-12
6.48573e-12
0.009725503
8.193319e-12
6.928259e-12
0.01034192
7.860517e-12
7.371191e-12
0.01099221
7.54432e-12
7.808206e-12
0.01167843
7.270305e-12
8.230934e-12
0.01240273
7.051336e-12
8.646291e-12
0.01316738
6.921422e-12
9.041089e-12
0.01397475
6.917033e-12
9.398719e-12
0.01482736
7.021017e-12
9.752903e-12
0.01572785
7.22157e-12
1.012623e-11
0.01667902
7.534543e-12
1.050537e-11
0.01768377
7.963555e-12
1.087883e-11
0.0187452
8.494699e-12
1.124078e-11
0.01986656
9.087271e-12
1.159972e-11
0.02105127
9.701048e-12
1.195192e-11
0.02230293
1.03047e-11
1.22751e-11
0.02362534
1.086215e-11
1.254553e-11
0.02502251
1.133391e-11
1.274166e-11
0.02649868
1.168015e-11
1.284675e-11
0.02805832
1.188065e-11
1.28353e-11
0.02970613
1.192809e-11
1.268586e-11
0.03144707
1.180426e-11
1.241006e-11
0.03328637
1.150198e-11
1.20344e-11
0.03522954
1.10554e-11
1.157148e-11
0.03728237
1.051697e-11
1.104095e-11
0.03945095
9.932167e-12
1.048544e-11
0.04174167
9.341376e-12
9.944105e-12
0.04416126
8.762254e-12
9.420686e-12
0.04671677
8.215584e-12
8.90596e-12
0.04941557
7.702369e-12
8.41386e-12
0.05226539
7.209937e-12
7.916565e-12
0.05527415
6.771204e-12
7.380913e-12
0.05845
6.355616e-12
6.845831e-12
0.06180124
5.91575e-12
6.318283e-12
0.06533621
5.472742e-12
5.782833e-12
0.06906326
5.065386e-12
5.285198e-12
0.07299058
4.752564e-12
4.889023e-12
0.07712608
4.568749e-12
4.623956e-12
0.08147719
4.470578e-12
4.431686e-12
0.08605071
4.305105e-12
4.142711e-12
0.0908526
3.83745e-12
3.520648e-12
0.09588785
2.861817e-12
2.379525e-12
0.1011604
1.474251e-12
9.430008e-13
0.1066731
2.807845e-13
-1.507456e-13
0.1124276
1.024514e-12
1.161358e-12
0.1184246
2.696516e-12
2.616731e-12
0.1246627
-6.521933e-13
-9.26762e-13
0.1311378
)
;

boundaryField
{
    leftandright
    {
        type            cyclic;
        value           nonuniform List<scalar> 
150
(
-8.187051e-05
-0.0002618369
-0.0004663777
-0.0006939499
-0.0009395547
-0.001195625
-0.001457078
-0.001721843
-0.001989335
-0.002259908
-0.002534474
-0.002814251
-0.003100609
-0.003394974
-0.003698779
-0.004013443
-0.004340358
-0.004680895
-0.005036409
-0.005408254
-0.005797792
-0.006206406
-0.006635508
-0.007086552
-0.007561036
-0.008060516
-0.008586614
-0.00914102
-0.009725503
-0.01034192
-0.01099221
-0.01167843
-0.01240273
-0.01316738
-0.01397475
-0.01482736
-0.01572785
-0.01667902
-0.01768377
-0.0187452
-0.01986656
-0.02105127
-0.02230293
-0.02362534
-0.02502251
-0.02649868
-0.02805832
-0.02970613
-0.03144707
-0.03328637
-0.03522954
-0.03728237
-0.03945095
-0.04174167
-0.04416126
-0.04671677
-0.04941557
-0.05226539
-0.05527415
-0.05845
-0.06180124
-0.06533621
-0.06906326
-0.07299058
-0.07712608
-0.08147719
-0.08605071
-0.0908526
-0.09588785
-0.1011604
-0.1066731
-0.1124276
-0.1184246
-0.1246627
-0.1311378
8.187051e-05
0.0002618369
0.0004663777
0.0006939499
0.0009395547
0.001195625
0.001457078
0.001721843
0.001989335
0.002259908
0.002534474
0.002814251
0.003100609
0.003394974
0.003698779
0.004013443
0.004340358
0.004680895
0.005036409
0.005408254
0.005797792
0.006206406
0.006635508
0.007086552
0.007561036
0.008060516
0.008586614
0.00914102
0.009725503
0.01034192
0.01099221
0.01167843
0.01240273
0.01316738
0.01397475
0.01482736
0.01572785
0.01667902
0.01768377
0.0187452
0.01986656
0.02105127
0.02230293
0.02362534
0.02502251
0.02649868
0.02805832
0.02970613
0.03144707
0.03328637
0.03522954
0.03728237
0.03945095
0.04174167
0.04416126
0.04671677
0.04941557
0.05226539
0.05527415
0.05845
0.06180124
0.06533621
0.06906326
0.07299058
0.07712608
0.08147719
0.08605071
0.0908526
0.09588785
0.1011604
0.1066731
0.1124276
0.1184246
0.1246627
0.1311378
)
;
    }
    wall
    {
        type            calculated;
        value           uniform 0;
    }
    frontAndBack
    {
        type            empty;
    }
    middle
    {
        type            symmetryPlane;
        value           uniform 0;
    }
}


// ************************************************************************* //
