/*--------------------------------*- C++ -*----------------------------------*\
| =========                 |                                                 |
| \\      /  F ield         | foam-extend: Open Source CFD                    |
|  \\    /   O peration     | Version:     4.0                                |
|   \\  /    A nd           | Web:         http://www.foam-extend.org         |
|    \\/     M anipulation  |                                                 |
\*---------------------------------------------------------------------------*/
FoamFile
{
    version     2.0;
    format      ascii;
    class       volScalarField;
    location    "100";
    object      QR;
}
// * * * * * * * * * * * * * * * * * * * * * * * * * * * * * * * * * * * * * //

dimensions      [0 0 -1 0 0 0 0];

internalField   nonuniform List<scalar> 
150
(
1053.679
1053.676
1043.238
1043.237
1016.683
1016.684
965.221
965.2216
883.6336
883.634
781.5948
781.595
676.9002
676.9002
580.0549
580.0549
494.6612
494.6612
421.4599
421.4599
359.7369
359.7369
308.1536
308.1536
265.207
265.2069
229.4602
229.4602
199.6412
199.6412
174.6697
174.6697
153.6525
153.6524
135.8645
135.8645
120.7234
120.7234
107.7622
107.7622
96.60612
96.60612
86.95298
86.95298
78.55832
78.55832
71.22323
71.22323
64.78499
64.78499
59.10981
59.10981
54.08701
54.08701
49.6246
49.6246
45.64568
45.64568
42.0856
42.0856
38.88977
38.88977
36.01181
36.01181
33.41214
33.41214
31.0568
31.0568
28.91651
28.91651
26.96594
26.96594
25.18311
25.18311
23.54891
23.54891
22.04679
22.04679
20.66244
20.66244
19.38356
19.38356
18.1996
18.1996
17.10151
17.10151
16.08144
16.08145
15.1325
15.1325
14.24851
14.24851
13.4239
13.42391
12.65358
12.65358
11.93287
11.93287
11.2575
11.2575
10.62352
10.62352
10.02736
10.02736
9.46572
9.46572
8.935639
8.935639
8.434437
8.434437
7.959749
7.959749
7.508971
7.508971
7.07862
7.07862
6.664801
6.664801
6.263827
6.263827
5.872263
5.872263
5.486847
5.486847
5.104458
5.104458
4.722133
4.722132
4.337129
4.337129
3.947075
3.947075
3.550187
3.550187
3.145559
3.145559
2.733453
2.733452
2.315444
2.315444
1.894251
1.894251
1.473037
1.473036
1.054668
1.054668
0.6401024
0.6401018
0.2171639
0.2171633
)
;

boundaryField
{
    leftandright
    {
        type            cyclic;
        value           nonuniform List<scalar> 
150
(
1053.677
1043.237
1016.684
965.2213
883.6338
781.5949
676.9002
580.0549
494.6612
421.4599
359.7369
308.1536
265.207
229.4602
199.6412
174.6697
153.6524
135.8645
120.7234
107.7622
96.60612
86.95298
78.55832
71.22323
64.78499
59.10981
54.08701
49.6246
45.64568
42.0856
38.88977
36.01181
33.41214
31.0568
28.91651
26.96594
25.18311
23.54891
22.04679
20.66244
19.38356
18.1996
17.10151
16.08145
15.1325
14.24851
13.4239
12.65358
11.93287
11.2575
10.62352
10.02736
9.46572
8.935639
8.434437
7.959749
7.508971
7.07862
6.664801
6.263827
5.872263
5.486847
5.104458
4.722133
4.337129
3.947075
3.550187
3.145559
2.733453
2.315444
1.894251
1.473036
1.054668
0.6401021
0.2171636
1053.677
1043.237
1016.684
965.2213
883.6338
781.5949
676.9002
580.0549
494.6612
421.4599
359.7369
308.1536
265.207
229.4602
199.6412
174.6697
153.6524
135.8645
120.7234
107.7622
96.60612
86.95298
78.55832
71.22323
64.78499
59.10981
54.08701
49.6246
45.64568
42.0856
38.88977
36.01181
33.41214
31.0568
28.91651
26.96594
25.18311
23.54891
22.04679
20.66244
19.38356
18.1996
17.10151
16.08145
15.1325
14.24851
13.4239
12.65358
11.93287
11.2575
10.62352
10.02736
9.46572
8.935639
8.434437
7.959749
7.508971
7.07862
6.664801
6.263827
5.872263
5.486847
5.104458
4.722133
4.337129
3.947075
3.550187
3.145559
2.733453
2.315444
1.894251
1.473036
1.054668
0.6401021
0.2171636
)
;
    }
    wall
    {
        type            calculated;
        value           nonuniform List<scalar> 2(1055.854 1055.85);
    }
    frontAndBack
    {
        type            empty;
    }
    middle
    {
        type            symmetryPlane;
        value           nonuniform List<scalar> 2(0.3800455 0.3800455);
    }
}


// ************************************************************************* //
