/*--------------------------------*- C++ -*----------------------------------*\
| =========                 |                                                 |
| \\      /  F ield         | foam-extend: Open Source CFD                    |
|  \\    /   O peration     | Version:     4.0                                |
|   \\  /    A nd           | Web:         http://www.foam-extend.org         |
|    \\/     M anipulation  |                                                 |
\*---------------------------------------------------------------------------*/
FoamFile
{
    version     2.0;
    format      ascii;
    class       volSymmTensorField;
    location    "100";
    object      RStress;
}
// * * * * * * * * * * * * * * * * * * * * * * * * * * * * * * * * * * * * * //

dimensions      [0 2 -2 0 0 0 0];

internalField   nonuniform List<symmTensor> 
150
(
(0.08485293 -0.0001134842 0 3.313032e-05 0 0.002226667)
(0.0848531 -0.000113484 0 3.313033e-05 0 0.002226523)
(0.8170792 -0.005423335 0 0.001407024 0 0.02888009)
(0.8170794 -0.005423336 0 0.001407024 0 0.0288801)
(1.996349 -0.02742437 0 0.006934114 0 0.09955887)
(1.996349 -0.0274244 0 0.006934116 0 0.09955891)
(3.501768 -0.06758235 0 0.0184305 0 0.2140872)
(3.501769 -0.06758241 0 0.0184305 0 0.2140873)
(5.173387 -0.1411318 0 0.03614053 0 0.3632908)
(5.173388 -0.1411319 0 0.03614054 0 0.3632909)
(6.778412 -0.2362276 0 0.05919198 0 0.5308113)
(6.778413 -0.2362277 0 0.059192 0 0.5308114)
(8.128908 -0.3303271 0 0.0863393 0 0.7002684)
(8.128909 -0.3303272 0 0.08633932 0 0.7002685)
(9.151779 -0.4161704 0 0.1163806 0 0.8605138)
(9.15178 -0.4161706 0 0.1163807 0 0.8605139)
(9.851395 -0.4907731 0 0.1482499 0 1.005244)
(9.851395 -0.4907733 0 0.1482499 0 1.005244)
(10.27219 -0.5536898 0 0.1810886 0 1.131912)
(10.27219 -0.55369 0 0.1810887 0 1.131912)
(10.47145 -0.6057678 0 0.214243 0 1.240396)
(10.47145 -0.6057679 0 0.2142431 0 1.240396)
(10.50431 -0.6483981 0 0.2472362 0 1.331912)
(10.50431 -0.6483983 0 0.2472363 0 1.331912)
(10.41742 -0.6830968 0 0.2797332 0 1.408277)
(10.41742 -0.6830969 0 0.2797332 0 1.408277)
(10.24754 -0.711293 0 0.311509 0 1.471473)
(10.24754 -0.7112931 0 0.3115091 0 1.471473)
(10.02241 -0.734239 0 0.3424255 0 1.523414)
(10.02241 -0.7342391 0 0.3424255 0 1.523415)
(9.762319 -0.7529868 0 0.3724134 0 1.565851)
(9.762319 -0.752987 0 0.3724135 0 1.565851)
(9.481789 -0.7684027 0 0.4014597 0 1.600332)
(9.481789 -0.7684028 0 0.4014598 0 1.600332)
(9.191094 -0.78117 0 0.4295799 0 1.628175)
(9.191094 -0.7811702 0 0.42958 0 1.628175)
(8.897406 -0.791822 0 0.4568026 0 1.65048)
(8.897406 -0.7918222 0 0.4568027 0 1.65048)
(8.605664 -0.8007715 0 0.4831599 0 1.668153)
(8.605664 -0.8007717 0 0.48316 0 1.668153)
(8.319201 -0.8083362 0 0.5086822 0 1.681939)
(8.319201 -0.8083363 0 0.5086823 0 1.68194)
(8.040204 -0.814759 0 0.5333961 0 1.692447)
(8.040205 -0.8147592 0 0.5333962 0 1.692447)
(7.77004 -0.8202246 0 0.5573236 0 1.700172)
(7.77004 -0.8202247 0 0.5573237 0 1.700172)
(7.50949 -0.8248715 0 0.5804808 0 1.70552)
(7.50949 -0.8248717 0 0.5804809 0 1.70552)
(7.258921 -0.8288028 0 0.6028785 0 1.708819)
(7.258921 -0.8288029 0 0.6028786 0 1.708819)
(7.018407 -0.832093 0 0.6245217 0 1.710336)
(7.018407 -0.8320932 0 0.6245218 0 1.710336)
(6.787816 -0.8347949 0 0.6454102 0 1.710284)
(6.787816 -0.834795 0 0.6454103 0 1.710284)
(6.566872 -0.8369435 0 0.6655384 0 1.708836)
(6.566872 -0.8369436 0 0.6655385 0 1.708836)
(6.355201 -0.8385598 0 0.684896 0 1.706124)
(6.355202 -0.8385599 0 0.6848961 0 1.706124)
(6.152364 -0.8396538 0 0.7034679 0 1.702252)
(6.152364 -0.8396539 0 0.703468 0 1.702252)
(5.957878 -0.8402259 0 0.7212346 0 1.697298)
(5.957878 -0.840226 0 0.7212347 0 1.697298)
(5.771232 -0.8402688 0 0.7381725 0 1.691314)
(5.771233 -0.8402689 0 0.7381726 0 1.691314)
(5.591906 -0.8397681 0 0.7542541 0 1.684336)
(5.591906 -0.8397682 0 0.7542541 0 1.684336)
(5.41937 -0.838703 0 0.7694481 0 1.676381)
(5.41937 -0.8387031 0 0.7694482 0 1.676381)
(5.253101 -0.8370468 0 0.7837201 0 1.667452)
(5.253101 -0.8370469 0 0.7837201 0 1.667452)
(5.092582 -0.8347676 0 0.7970325 0 1.657539)
(5.092582 -0.8347676 0 0.7970326 0 1.657539)
(4.937314 -0.8318292 0 0.8093455 0 1.646624)
(4.937314 -0.8318292 0 0.8093456 0 1.646624)
(4.786819 -0.8281933 0 0.8206172 0 1.63468)
(4.786819 -0.8281933 0 0.8206172 0 1.63468)
(4.640649 -0.8238226 0 0.8308045 0 1.621676)
(4.640649 -0.8238226 0 0.8308045 0 1.621676)
(4.498391 -0.8186846 0 0.8398639 0 1.60758)
(4.498391 -0.8186847 0 0.839864 0 1.60758)
(4.359672 -0.8127556 0 0.8477524 0 1.592359)
(4.359672 -0.8127557 0 0.8477524 0 1.592359)
(4.224165 -0.8060231 0 0.8544274 0 1.575984)
(4.224165 -0.8060231 0 0.8544275 0 1.575984)
(4.091585 -0.7984853 0 0.8598482 0 1.558428)
(4.091585 -0.7984854 0 0.8598483 0 1.558428)
(3.961693 -0.7901492 0 0.8639758 0 1.539672)
(3.961693 -0.7901493 0 0.8639758 0 1.539672)
(3.834283 -0.7810254 0 0.8667732 0 1.519698)
(3.834283 -0.7810254 0 0.8667732 0 1.519698)
(3.709184 -0.7711241 0 0.8682056 0 1.498494)
(3.709184 -0.7711241 0 0.8682056 0 1.498494)
(3.586248 -0.7604515 0 0.8682397 0 1.476049)
(3.586248 -0.7604515 0 0.8682397 0 1.47605)
(3.465344 -0.7490083 0 0.8668436 0 1.452357)
(3.465345 -0.7490083 0 0.8668436 0 1.452357)
(3.346361 -0.7367887 0 0.8639858 0 1.427409)
(3.346361 -0.7367887 0 0.8639858 0 1.427409)
(3.229194 -0.7237808 0 0.8596347 0 1.401197)
(3.229194 -0.7237808 0 0.8596347 0 1.401197)
(3.113755 -0.7099672 0 0.8537574 0 1.373711)
(3.113755 -0.7099672 0 0.8537574 0 1.373711)
(2.999962 -0.6953256 0 0.8463182 0 1.344941)
(2.999962 -0.6953256 0 0.8463182 0 1.344941)
(2.887751 -0.6798293 0 0.837277 0 1.314872)
(2.887751 -0.6798294 0 0.8372769 0 1.314872)
(2.777073 -0.663448 0 0.826586 0 1.283483)
(2.777073 -0.663448 0 0.826586 0 1.283483)
(2.667902 -0.6461475 0 0.8141787 0 1.250748)
(2.667902 -0.6461475 0 0.8141787 0 1.250748)
(2.560242 -0.627891 0 0.7999792 0 1.216628)
(2.560242 -0.627891 0 0.7999791 0 1.216628)
(2.454141 -0.6085925 0 0.7838933 0 1.181069)
(2.454141 -0.6085925 0 0.7838933 0 1.181069)
(2.349341 -0.5882427 0 0.7660127 0 1.144133)
(2.349341 -0.5882427 0 0.7660126 0 1.144133)
(2.24556 -0.5668056 0 0.7464781 0 1.105916)
(2.24556 -0.5668056 0 0.7464781 0 1.105916)
(2.142589 -0.544231 0 0.7254449 0 1.06652)
(2.142589 -0.544231 0 0.7254449 0 1.06652)
(2.040304 -0.5204656 0 0.7030698 0 1.026068)
(2.040304 -0.5204656 0 0.7030698 0 1.026068)
(1.938681 -0.4954533 0 0.6795231 0 0.9847115)
(1.938681 -0.4954533 0 0.6795231 0 0.9847115)
(1.837813 -0.4691353 0 0.6549981 0 0.9426441)
(1.837813 -0.4691353 0 0.654998 0 0.9426441)
(1.737936 -0.4414504 0 0.6297204 0 0.9001139)
(1.737936 -0.4414504 0 0.6297204 0 0.9001138)
(1.639459 -0.4123349 0 0.6039564 0 0.8574381)
(1.639459 -0.4123349 0 0.6039564 0 0.8574381)
(1.542987 -0.3817231 0 0.5780279 0 0.8150179)
(1.542987 -0.3817231 0 0.5780279 0 0.8150179)
(1.449352 -0.3495469 0 0.5522951 0 0.7733503)
(1.449352 -0.3495469 0 0.5522951 0 0.7733503)
(1.359626 -0.3157346 0 0.5272526 0 0.733035)
(1.359626 -0.3157346 0 0.5272525 0 0.7330349)
(1.27512 -0.2802087 0 0.5031995 0 0.6947723)
(1.27512 -0.2802086 0 0.5031994 0 0.6947722)
(1.197352 -0.2428801 0 0.4813273 0 0.6593489)
(1.197352 -0.2428801 0 0.4813273 0 0.6593489)
(1.127991 -0.2036428 0 0.4601782 0 0.6276097)
(1.127991 -0.2036428 0 0.4601781 0 0.6276097)
(1.068788 -0.1623673 0 0.4465308 0 0.6004253)
(1.068788 -0.1623673 0 0.4465307 0 0.6004252)
(1.021506 -0.1189034 0 0.4226574 0 0.5786606)
(1.021506 -0.1189033 0 0.4226574 0 0.5786606)
(0.9879575 -0.07309266 0 0.4328078 0 0.5631906)
(0.9879575 -0.07309259 0 0.4328078 0 0.5631906)
(0.9700201 -0.02479485 0 0.408373 0 0.5549122)
(0.9700201 -0.02479478 0 0.408373 0 0.5549122)
)
;

boundaryField
{
    leftandright
    {
        type            cyclic;
        value           nonuniform List<symmTensor> 
150
(
(0.08485301 -0.0001134841 0 3.313033e-05 0 0.002226595)
(0.8170793 -0.005423335 0 0.001407024 0 0.0288801)
(1.996349 -0.02742439 0 0.006934115 0 0.09955889)
(3.501769 -0.06758238 0 0.0184305 0 0.2140872)
(5.173387 -0.1411318 0 0.03614054 0 0.3632909)
(6.778412 -0.2362276 0 0.05919199 0 0.5308114)
(8.128909 -0.3303272 0 0.08633931 0 0.7002684)
(9.15178 -0.4161705 0 0.1163807 0 0.8605138)
(9.851395 -0.4907732 0 0.1482499 0 1.005244)
(10.27219 -0.5536899 0 0.1810886 0 1.131912)
(10.47145 -0.6057679 0 0.2142431 0 1.240396)
(10.50431 -0.6483982 0 0.2472363 0 1.331912)
(10.41742 -0.6830969 0 0.2797332 0 1.408277)
(10.24754 -0.7112931 0 0.311509 0 1.471473)
(10.02241 -0.7342391 0 0.3424255 0 1.523415)
(9.762319 -0.7529869 0 0.3724134 0 1.565851)
(9.481789 -0.7684028 0 0.4014597 0 1.600332)
(9.191094 -0.7811701 0 0.4295799 0 1.628175)
(8.897406 -0.7918221 0 0.4568027 0 1.65048)
(8.605664 -0.8007716 0 0.48316 0 1.668153)
(8.319201 -0.8083362 0 0.5086822 0 1.681939)
(8.040205 -0.8147591 0 0.5333962 0 1.692447)
(7.77004 -0.8202246 0 0.5573236 0 1.700172)
(7.50949 -0.8248716 0 0.5804809 0 1.70552)
(7.258921 -0.8288028 0 0.6028785 0 1.708819)
(7.018407 -0.8320931 0 0.6245218 0 1.710336)
(6.787816 -0.834795 0 0.6454102 0 1.710284)
(6.566872 -0.8369435 0 0.6655384 0 1.708836)
(6.355202 -0.8385598 0 0.684896 0 1.706124)
(6.152364 -0.8396538 0 0.7034679 0 1.702252)
(5.957878 -0.8402259 0 0.7212346 0 1.697298)
(5.771233 -0.8402688 0 0.7381725 0 1.691314)
(5.591906 -0.8397681 0 0.7542541 0 1.684336)
(5.41937 -0.838703 0 0.7694481 0 1.676381)
(5.253101 -0.8370468 0 0.7837201 0 1.667452)
(5.092582 -0.8347676 0 0.7970326 0 1.657539)
(4.937314 -0.8318292 0 0.8093456 0 1.646624)
(4.786819 -0.8281933 0 0.8206172 0 1.63468)
(4.640649 -0.8238226 0 0.8308045 0 1.621676)
(4.498391 -0.8186846 0 0.839864 0 1.60758)
(4.359672 -0.8127557 0 0.8477524 0 1.592359)
(4.224165 -0.8060231 0 0.8544274 0 1.575984)
(4.091585 -0.7984854 0 0.8598483 0 1.558428)
(3.961693 -0.7901492 0 0.8639758 0 1.539672)
(3.834283 -0.7810254 0 0.8667732 0 1.519698)
(3.709184 -0.7711241 0 0.8682056 0 1.498494)
(3.586248 -0.7604515 0 0.8682397 0 1.476049)
(3.465345 -0.7490083 0 0.8668436 0 1.452357)
(3.346361 -0.7367887 0 0.8639858 0 1.427409)
(3.229194 -0.7237808 0 0.8596347 0 1.401197)
(3.113755 -0.7099672 0 0.8537574 0 1.373711)
(2.999962 -0.6953256 0 0.8463182 0 1.344941)
(2.887751 -0.6798293 0 0.8372769 0 1.314872)
(2.777073 -0.663448 0 0.826586 0 1.283483)
(2.667902 -0.6461475 0 0.8141787 0 1.250748)
(2.560242 -0.627891 0 0.7999792 0 1.216628)
(2.454141 -0.6085925 0 0.7838933 0 1.181069)
(2.349341 -0.5882427 0 0.7660127 0 1.144133)
(2.24556 -0.5668056 0 0.7464781 0 1.105916)
(2.142589 -0.544231 0 0.7254449 0 1.06652)
(2.040304 -0.5204656 0 0.7030698 0 1.026068)
(1.938681 -0.4954533 0 0.6795231 0 0.9847115)
(1.837813 -0.4691353 0 0.654998 0 0.9426441)
(1.737936 -0.4414504 0 0.6297204 0 0.9001139)
(1.639459 -0.4123349 0 0.6039564 0 0.8574381)
(1.542987 -0.3817231 0 0.5780279 0 0.8150179)
(1.449352 -0.3495469 0 0.5522951 0 0.7733503)
(1.359626 -0.3157346 0 0.5272526 0 0.7330349)
(1.27512 -0.2802086 0 0.5031994 0 0.6947723)
(1.197352 -0.2428801 0 0.4813273 0 0.6593489)
(1.127991 -0.2036428 0 0.4601782 0 0.6276097)
(1.068788 -0.1623673 0 0.4465308 0 0.6004253)
(1.021506 -0.1189033 0 0.4226574 0 0.5786606)
(0.9879575 -0.07309262 0 0.4328078 0 0.5631906)
(0.9700201 -0.02479481 0 0.408373 0 0.5549122)
(0.08485301 -0.0001134841 0 3.313033e-05 0 0.002226595)
(0.8170793 -0.005423335 0 0.001407024 0 0.0288801)
(1.996349 -0.02742439 0 0.006934115 0 0.09955889)
(3.501769 -0.06758238 0 0.0184305 0 0.2140872)
(5.173387 -0.1411318 0 0.03614054 0 0.3632909)
(6.778412 -0.2362276 0 0.05919199 0 0.5308114)
(8.128909 -0.3303272 0 0.08633931 0 0.7002684)
(9.15178 -0.4161705 0 0.1163807 0 0.8605138)
(9.851395 -0.4907732 0 0.1482499 0 1.005244)
(10.27219 -0.5536899 0 0.1810886 0 1.131912)
(10.47145 -0.6057679 0 0.2142431 0 1.240396)
(10.50431 -0.6483982 0 0.2472363 0 1.331912)
(10.41742 -0.6830969 0 0.2797332 0 1.408277)
(10.24754 -0.7112931 0 0.311509 0 1.471473)
(10.02241 -0.7342391 0 0.3424255 0 1.523415)
(9.762319 -0.7529869 0 0.3724134 0 1.565851)
(9.481789 -0.7684028 0 0.4014597 0 1.600332)
(9.191094 -0.7811701 0 0.4295799 0 1.628175)
(8.897406 -0.7918221 0 0.4568027 0 1.65048)
(8.605664 -0.8007716 0 0.48316 0 1.668153)
(8.319201 -0.8083362 0 0.5086822 0 1.681939)
(8.040205 -0.8147591 0 0.5333962 0 1.692447)
(7.77004 -0.8202246 0 0.5573236 0 1.700172)
(7.50949 -0.8248716 0 0.5804809 0 1.70552)
(7.258921 -0.8288028 0 0.6028785 0 1.708819)
(7.018407 -0.8320931 0 0.6245218 0 1.710336)
(6.787816 -0.834795 0 0.6454102 0 1.710284)
(6.566872 -0.8369435 0 0.6655384 0 1.708836)
(6.355202 -0.8385598 0 0.684896 0 1.706124)
(6.152364 -0.8396538 0 0.7034679 0 1.702252)
(5.957878 -0.8402259 0 0.7212346 0 1.697298)
(5.771233 -0.8402688 0 0.7381725 0 1.691314)
(5.591906 -0.8397681 0 0.7542541 0 1.684336)
(5.41937 -0.838703 0 0.7694481 0 1.676381)
(5.253101 -0.8370468 0 0.7837201 0 1.667452)
(5.092582 -0.8347676 0 0.7970326 0 1.657539)
(4.937314 -0.8318292 0 0.8093456 0 1.646624)
(4.786819 -0.8281933 0 0.8206172 0 1.63468)
(4.640649 -0.8238226 0 0.8308045 0 1.621676)
(4.498391 -0.8186846 0 0.839864 0 1.60758)
(4.359672 -0.8127557 0 0.8477524 0 1.592359)
(4.224165 -0.8060231 0 0.8544274 0 1.575984)
(4.091585 -0.7984854 0 0.8598483 0 1.558428)
(3.961693 -0.7901492 0 0.8639758 0 1.539672)
(3.834283 -0.7810254 0 0.8667732 0 1.519698)
(3.709184 -0.7711241 0 0.8682056 0 1.498494)
(3.586248 -0.7604515 0 0.8682397 0 1.476049)
(3.465345 -0.7490083 0 0.8668436 0 1.452357)
(3.346361 -0.7367887 0 0.8639858 0 1.427409)
(3.229194 -0.7237808 0 0.8596347 0 1.401197)
(3.113755 -0.7099672 0 0.8537574 0 1.373711)
(2.999962 -0.6953256 0 0.8463182 0 1.344941)
(2.887751 -0.6798293 0 0.8372769 0 1.314872)
(2.777073 -0.663448 0 0.826586 0 1.283483)
(2.667902 -0.6461475 0 0.8141787 0 1.250748)
(2.560242 -0.627891 0 0.7999792 0 1.216628)
(2.454141 -0.6085925 0 0.7838933 0 1.181069)
(2.349341 -0.5882427 0 0.7660127 0 1.144133)
(2.24556 -0.5668056 0 0.7464781 0 1.105916)
(2.142589 -0.544231 0 0.7254449 0 1.06652)
(2.040304 -0.5204656 0 0.7030698 0 1.026068)
(1.938681 -0.4954533 0 0.6795231 0 0.9847115)
(1.837813 -0.4691353 0 0.654998 0 0.9426441)
(1.737936 -0.4414504 0 0.6297204 0 0.9001139)
(1.639459 -0.4123349 0 0.6039564 0 0.8574381)
(1.542987 -0.3817231 0 0.5780279 0 0.8150179)
(1.449352 -0.3495469 0 0.5522951 0 0.7733503)
(1.359626 -0.3157346 0 0.5272526 0 0.7330349)
(1.27512 -0.2802086 0 0.5031994 0 0.6947723)
(1.197352 -0.2428801 0 0.4813273 0 0.6593489)
(1.127991 -0.2036428 0 0.4601782 0 0.6276097)
(1.068788 -0.1623673 0 0.4465308 0 0.6004253)
(1.021506 -0.1189033 0 0.4226574 0 0.5786606)
(0.9879575 -0.07309262 0 0.4328078 0 0.5631906)
(0.9700201 -0.02479481 0 0.408373 0 0.5549122)
)
;
    }
    wall
    {
        type            calculated;
        value           nonuniform List<symmTensor> 2((3.333333e-11 -3.099293e-10 0 9.983495e-11 0 6.666667e-11) (3.333333e-11 -3.099282e-10 0 9.983496e-11 0 6.666667e-11));
    }
    frontAndBack
    {
        type            empty;
    }
    middle
    {
        type            symmetryPlane;
        value           nonuniform List<symmTensor> 2((0.9700201 0 0 0.492412 0 0.5549122) (0.9700201 0 0 0.4924119 0 0.5549122));
    }
}


// ************************************************************************* //
