/*--------------------------------*- C++ -*----------------------------------*\
| =========                 |                                                 |
| \\      /  F ield         | foam-extend: Open Source CFD                    |
|  \\    /   O peration     | Version:     4.0                                |
|   \\  /    A nd           | Web:         http://www.foam-extend.org         |
|    \\/     M anipulation  |                                                 |
\*---------------------------------------------------------------------------*/
FoamFile
{
    version     2.0;
    format      ascii;
    class       volSymmTensorField;
    location    "100";
    object      tauP;
}
// * * * * * * * * * * * * * * * * * * * * * * * * * * * * * * * * * * * * * //

dimensions      [0 2 -2 0 0 0 0];

internalField   nonuniform List<symmTensor> 
150
(
(2.244269 0.04810362 0 3.762489e-05 0 1.313914e-05)
(2.244596 0.0481085 0 3.769764e-05 0 1.321128e-05)
(2.227026 0.04799524 0 4.310015e-05 0 1.391902e-05)
(2.2271 0.04799596 0 4.30923e-05 0 1.393566e-05)
(2.188848 0.04795366 0 7.331855e-05 0 1.555436e-05)
(2.188858 0.04795372 0 7.330789e-05 0 1.555623e-05)
(2.12127 0.04805644 0 0.0001497645 0 1.607189e-05)
(2.121267 0.04805637 0 0.00014976 0 1.607087e-05)
(2.017064 0.04821387 0 0.0002915244 0 1.266169e-05)
(2.017058 0.04821381 0 0.0002915232 0 1.266042e-05)
(1.884732 0.0484778 0 0.0005149608 0 6.15072e-06)
(1.884726 0.04847779 0 0.000514961 0 6.149506e-06)
(1.7447 0.04904678 0 0.0008315003 0 3.02211e-07)
(1.744695 0.04904681 0 0.0008315021 0 3.009864e-07)
(1.611801 0.05003564 0 0.001253795 0 -3.069065e-06)
(1.611796 0.05003568 0 0.001253798 0 -3.070236e-06)
(1.491395 0.05141049 0 0.001792701 0 -4.425368e-06)
(1.491391 0.05141057 0 0.001792705 0 -4.426606e-06)
(1.384215 0.05307339 0 0.002456648 0 -4.581529e-06)
(1.384212 0.05307344 0 0.002456654 0 -4.582716e-06)
(1.289096 0.05490433 0 0.003250476 0 -4.15412e-06)
(1.289093 0.05490438 0 0.003250483 0 -4.155247e-06)
(1.204262 0.05677953 0 0.004174127 0 -3.516132e-06)
(1.20426 0.05677958 0 0.004174135 0 -3.517399e-06)
(1.127904 0.05858152 0 0.005221801 0 -2.866054e-06)
(1.127903 0.05858157 0 0.005221811 0 -2.867031e-06)
(1.05842 0.06020638 0 0.006381834 0 -2.292419e-06)
(1.058419 0.06020643 0 0.006381843 0 -2.293335e-06)
(0.9944892 0.06156841 0 0.007637259 0 -1.822511e-06)
(0.994488 0.06156843 0 0.007637267 0 -1.82343e-06)
(0.9350705 0.06260282 0 0.008966973 0 -1.453463e-06)
(0.9350691 0.06260284 0 0.008966982 0 -1.454799e-06)
(0.8793664 0.06326599 0 0.0103471 0 -1.169249e-06)
(0.8793655 0.06326601 0 0.01034711 0 -1.170091e-06)
(0.8267729 0.0635326 0 0.01175168 0 -9.50341e-07)
(0.8267718 0.06353261 0 0.01175169 0 -9.515905e-07)
(0.7768331 0.0633926 0 0.01315339 0 -7.812582e-07)
(0.7768324 0.06339262 0 0.0131534 0 -7.822259e-07)
(0.7292019 0.06284897 0 0.01452436 0 -6.48637e-07)
(0.7292012 0.06284896 0 0.01452437 0 -6.495632e-07)
(0.6836138 0.06191485 0 0.01583687 0 -5.42775e-07)
(0.6836132 0.06191484 0 0.01583688 0 -5.436262e-07)
(0.6398624 0.06061129 0 0.017064 0 -4.564673e-07)
(0.6398619 0.06061128 0 0.017064 0 -4.568084e-07)
(0.5977809 0.05896502 0 0.01818013 0 -3.851517e-07)
(0.5977808 0.05896502 0 0.01818014 0 -3.854132e-07)
(0.557236 0.05700687 0 0.01916149 0 -3.25428e-07)
(0.5572355 0.05700686 0 0.0191615 0 -3.260901e-07)
(0.5181169 0.05477025 0 0.01998653 0 -2.759689e-07)
(0.5181169 0.05477025 0 0.01998654 0 -2.761136e-07)
(0.4803356 0.05229019 0 0.02063633 0 -2.343627e-07)
(0.4803353 0.05229019 0 0.02063634 0 -2.346718e-07)
(0.4438209 0.04960248 0 0.02109498 0 -2.004531e-07)
(0.4438209 0.04960248 0 0.02109498 0 -2.00467e-07)
(0.4085207 0.04674307 0 0.02134986 0 -1.722717e-07)
(0.4085207 0.0467431 0 0.02134987 0 -1.722126e-07)
(0.374399 0.04374777 0 0.02139203 0 -1.500792e-07)
(0.3743993 0.04374778 0 0.02139204 0 -1.499524e-07)
(0.34144 0.04065201 0 0.02121658 0 -1.327835e-07)
(0.3414401 0.04065202 0 0.02121659 0 -1.32615e-07)
(0.3096457 0.03749093 0 0.02082303 0 -1.209012e-07)
(0.309646 0.03749093 0 0.02082304 0 -1.204521e-07)
(0.2790429 0.03429953 0 0.02021586 0 -1.133229e-07)
(0.2790429 0.03429956 0 0.02021587 0 -1.128262e-07)
(0.2496829 0.03111315 0 0.01940516 0 -1.101952e-07)
(0.2496831 0.03111316 0 0.01940517 0 -1.094452e-07)
(0.2216464 0.02796778 0 0.01840727 0 -1.111141e-07)
(0.2216465 0.02796778 0 0.01840728 0 -1.106643e-07)
(0.1950458 0.02490045 0 0.01724557 0 -1.157068e-07)
(0.195046 0.02490048 0 0.01724558 0 -1.149836e-07)
(0.1700253 0.02194945 0 0.01595102 0 -1.226575e-07)
(0.1700254 0.02194947 0 0.01595104 0 -1.21718e-07)
(0.1467551 0.01915367 0 0.01456219 0 -1.303508e-07)
(0.1467553 0.01915369 0 0.0145622 0 -1.293976e-07)
(0.1254182 0.01655102 0 0.01312412 0 -1.363785e-07)
(0.1254183 0.01655103 0 0.01312413 0 -1.354436e-07)
(0.1061852 0.0141755 0 0.01168569 0 -1.382555e-07)
(0.1061853 0.01417551 0 0.0116857 0 -1.376943e-07)
(0.08918187 0.01205319 0 0.01029512 0 -1.344014e-07)
(0.08918195 0.0120532 0 0.01029513 0 -1.33697e-07)
(0.07445518 0.01019824 0 0.008994342 0 -1.241504e-07)
(0.07445525 0.01019825 0 0.00899435 0 -1.232758e-07)
(0.0619515 0.008610252 0 0.007813867 0 -1.08211e-07)
(0.06195157 0.00861026 0 0.007813874 0 -1.075598e-07)
(0.05151699 0.00727461 0 0.006769918 0 -8.943367e-08)
(0.05151703 0.007274614 0 0.006769924 0 -8.86529e-08)
(0.04292151 0.006165759 0 0.005864883 0 -7.055567e-08)
(0.04292155 0.006165763 0 0.005864887 0 -6.982338e-08)
(0.03589628 0.005252206 0 0.005090559 0 -5.329453e-08)
(0.03589632 0.00525221 0 0.005090563 0 -5.299378e-08)
(0.03017054 0.00450143 0 0.00443256 0 -3.921629e-08)
(0.03017056 0.004501432 0 0.004432562 0 -3.880391e-08)
(0.02549758 0.00388336 0 0.003874259 0 -2.836316e-08)
(0.0254976 0.003883362 0 0.003874261 0 -2.81932e-08)
(0.02166729 0.003372146 0 0.003399453 0 -2.036373e-08)
(0.02166731 0.003372148 0 0.003399455 0 -2.005599e-08)
(0.0185083 0.002946548 0 0.002993725 0 -1.437273e-08)
(0.0185083 0.00294655 0 0.002993727 0 -1.431891e-08)
(0.01588429 0.002589582 0 0.002644888 0 -1.009166e-08)
(0.0158843 0.002589582 0 0.002644888 0 -1.026105e-08)
(0.0136884 0.002287851 0 0.002342929 0 -7.39717e-09)
(0.01368841 0.002287851 0 0.002342929 0 -7.404616e-09)
(0.01183711 0.002030828 0 0.002079731 0 -5.135182e-09)
(0.01183711 0.002030828 0 0.002079731 0 -5.159512e-09)
(0.01026518 0.001810255 0 0.001848759 0 -3.635555e-09)
(0.01026518 0.001810255 0 0.001848759 0 -3.670882e-09)
(0.008921456 0.001619615 0 0.001644743 0 -2.622572e-09)
(0.008921458 0.001619615 0 0.001644743 0 -2.661845e-09)
(0.007765855 0.001453773 0 0.001463493 0 -1.778492e-09)
(0.007765856 0.001453773 0 0.001463492 0 -1.819887e-09)
(0.006766254 0.001308595 0 0.001301506 0 -1.282018e-09)
(0.006766254 0.001308595 0 0.001301505 0 -1.32957e-09)
(0.005895599 0.001180575 0 0.001155625 0 -9.109489e-10)
(0.005895599 0.001180575 0 0.001155624 0 -9.677359e-10)
(0.005133366 0.001066959 0 0.001023886 0 -5.427852e-10)
(0.005133366 0.001066959 0 0.001023884 0 -8.055035e-10)
(0.004462059 0.0009653353 0 0.0009045137 0 -2.546866e-10)
(0.004462059 0.0009653354 0 0.0009045153 0 -5.348886e-10)
(0.003867136 0.0008736611 0 0.0007958944 0 -1.990601e-10)
(0.003867138 0.000873661 0 0.0007958942 0 -3.131149e-10)
(0.003337073 0.0007902628 0 0.0006967141 0 2.277301e-11)
(0.003337073 0.0007902628 0 0.000696714 0 -1.101068e-10)
(0.002862678 0.0007137517 0 0.0006059044 0 4.589495e-11)
(0.002862678 0.0007137517 0 0.0006059044 0 -8.847843e-11)
(0.00243663 0.0006429627 0 0.0005225949 0 -7.89469e-11)
(0.00243663 0.0006429627 0 0.0005225949 0 -1.894075e-10)
(0.002053161 0.0005769143 0 0.0004460918 0 -3.341385e-11)
(0.002053162 0.0005769143 0 0.0004460919 0 -8.826563e-11)
(0.001707854 0.0005147873 0 0.0003758729 0 -1.732484e-11)
(0.001707855 0.0005147874 0 0.0003758731 0 1.459648e-11)
(0.001397399 0.0004559047 0 0.0003115503 0 -4.733878e-10)
(0.0013974 0.0004559048 0 0.0003115506 0 -1.371548e-10)
(0.001119724 0.000399748 0 0.0002529634 0 -8.880568e-10)
(0.001119727 0.0003997484 0 0.0002529638 0 -2.063748e-10)
(0.000872959 0.0003458954 0 0.0001998467 0 -1.330201e-09)
(0.0008729617 0.0003458958 0 0.0001998471 0 -4.408338e-10)
(0.000658228 0.0002942212 0 0.0001529144 0 -1.717114e-09)
(0.0006582281 0.0002942216 0 0.0001529146 0 -4.877569e-10)
(0.0004699648 0.0002443082 0 0.0001102747 0 -1.336375e-09)
(0.0004699638 0.0002443083 0 0.0001102746 0 -4.696368e-10)
(0.0003243207 0.0001969214 0 7.841312e-05 0 3.840789e-10)
(0.000324319 0.0001969207 0 7.841095e-05 0 3.927845e-10)
(0.0001744676 0.0001501337 0 3.91811e-05 0 2.83828e-09)
(0.0001744697 0.0001501322 0 3.918077e-05 0 1.119304e-09)
(0.0001541357 0.0001079837 0 4.604639e-05 0 8.208065e-10)
(0.0001541403 0.0001079841 0 4.60461e-05 0 -3.196779e-09)
(-4.864166e-05 6.260853e-05 0 -2.51911e-05 0 -6.855213e-10)
(-4.864279e-05 6.260944e-05 0 -2.519087e-05 0 4.82783e-10)
(5.157029e-05 2.156803e-05 0 2.006915e-05 0 7.076357e-10)
(5.15654e-05 2.156755e-05 0 2.006761e-05 0 -1.191692e-09)
)
;

boundaryField
{
    leftandright
    {
        type            cyclic;
        value           nonuniform List<symmTensor> 
150
(
(2.244433 0.04810606 0 3.766126e-05 0 1.317521e-05)
(2.227063 0.0479956 0 4.309622e-05 0 1.392734e-05)
(2.188853 0.04795369 0 7.331322e-05 0 1.555529e-05)
(2.121269 0.04805641 0 0.0001497623 0 1.607138e-05)
(2.017061 0.04821384 0 0.0002915238 0 1.266106e-05)
(1.884729 0.0484778 0 0.0005149609 0 6.150113e-06)
(1.744697 0.04904679 0 0.0008315012 0 3.015987e-07)
(1.611799 0.05003566 0 0.001253796 0 -3.069651e-06)
(1.491393 0.05141053 0 0.001792703 0 -4.425987e-06)
(1.384214 0.05307342 0 0.002456651 0 -4.582122e-06)
(1.289095 0.05490436 0 0.00325048 0 -4.154683e-06)
(1.204261 0.05677955 0 0.004174131 0 -3.516765e-06)
(1.127903 0.05858155 0 0.005221806 0 -2.866543e-06)
(1.058419 0.06020641 0 0.006381839 0 -2.292877e-06)
(0.9944886 0.06156842 0 0.007637263 0 -1.82297e-06)
(0.9350698 0.06260283 0 0.008966978 0 -1.454131e-06)
(0.8793659 0.063266 0 0.01034711 0 -1.16967e-06)
(0.8267724 0.0635326 0 0.01175169 0 -9.509658e-07)
(0.7768327 0.06339261 0 0.0131534 0 -7.81742e-07)
(0.7292016 0.06284897 0 0.01452436 0 -6.491001e-07)
(0.6836135 0.06191485 0 0.01583687 0 -5.432006e-07)
(0.6398621 0.06061129 0 0.017064 0 -4.566379e-07)
(0.5977808 0.05896502 0 0.01818014 0 -3.852824e-07)
(0.5572358 0.05700687 0 0.0191615 0 -3.25759e-07)
(0.5181169 0.05477025 0 0.01998653 0 -2.760412e-07)
(0.4803354 0.05229019 0 0.02063634 0 -2.345172e-07)
(0.4438209 0.04960248 0 0.02109498 0 -2.004601e-07)
(0.4085207 0.04674309 0 0.02134987 0 -1.722422e-07)
(0.3743992 0.04374778 0 0.02139204 0 -1.500158e-07)
(0.3414401 0.04065201 0 0.02121658 0 -1.326993e-07)
(0.3096459 0.03749093 0 0.02082303 0 -1.206767e-07)
(0.2790429 0.03429955 0 0.02021587 0 -1.130746e-07)
(0.249683 0.03111316 0 0.01940516 0 -1.098202e-07)
(0.2216465 0.02796778 0 0.01840727 0 -1.108892e-07)
(0.1950459 0.02490046 0 0.01724557 0 -1.153452e-07)
(0.1700254 0.02194946 0 0.01595103 0 -1.221878e-07)
(0.1467552 0.01915368 0 0.01456219 0 -1.298742e-07)
(0.1254182 0.01655103 0 0.01312412 0 -1.35911e-07)
(0.1061852 0.0141755 0 0.0116857 0 -1.379749e-07)
(0.08918191 0.0120532 0 0.01029512 0 -1.340492e-07)
(0.07445522 0.01019825 0 0.008994346 0 -1.237131e-07)
(0.06195154 0.008610256 0 0.007813871 0 -1.078854e-07)
(0.05151701 0.007274612 0 0.006769921 0 -8.904329e-08)
(0.04292153 0.006165761 0 0.005864885 0 -7.018953e-08)
(0.0358963 0.005252208 0 0.005090561 0 -5.314415e-08)
(0.03017055 0.004501431 0 0.004432561 0 -3.90101e-08)
(0.02549759 0.003883361 0 0.00387426 0 -2.827818e-08)
(0.0216673 0.003372147 0 0.003399454 0 -2.020986e-08)
(0.0185083 0.002946549 0 0.002993726 0 -1.434582e-08)
(0.0158843 0.002589582 0 0.002644888 0 -1.017635e-08)
(0.0136884 0.002287851 0 0.002342929 0 -7.400893e-09)
(0.01183711 0.002030828 0 0.002079731 0 -5.147347e-09)
(0.01026518 0.001810255 0 0.001848759 0 -3.653219e-09)
(0.008921457 0.001619615 0 0.001644743 0 -2.642208e-09)
(0.007765856 0.001453773 0 0.001463492 0 -1.799189e-09)
(0.006766254 0.001308595 0 0.001301506 0 -1.305794e-09)
(0.005895599 0.001180575 0 0.001155625 0 -9.393424e-10)
(0.005133366 0.001066959 0 0.001023885 0 -6.741443e-10)
(0.004462059 0.0009653353 0 0.0009045145 0 -3.947876e-10)
(0.003867137 0.000873661 0 0.0007958943 0 -2.560875e-10)
(0.003337073 0.0007902628 0 0.0006967141 0 -4.366689e-11)
(0.002862678 0.0007137517 0 0.0006059044 0 -2.129174e-11)
(0.00243663 0.0006429627 0 0.0005225949 0 -1.341772e-10)
(0.002053161 0.0005769143 0 0.0004460919 0 -6.083974e-11)
(0.001707854 0.0005147874 0 0.000375873 0 -1.364179e-12)
(0.0013974 0.0004559047 0 0.0003115505 0 -3.052713e-10)
(0.001119725 0.0003997482 0 0.0002529636 0 -5.472158e-10)
(0.0008729604 0.0003458956 0 0.0001998469 0 -8.855173e-10)
(0.000658228 0.0002942214 0 0.0001529145 0 -1.102435e-09)
(0.0004699643 0.0002443083 0 0.0001102746 0 -9.030059e-10)
(0.0003243198 0.000196921 0 7.841204e-05 0 3.884317e-10)
(0.0001744687 0.0001501329 0 3.918094e-05 0 1.978792e-09)
(0.000154138 0.0001079839 0 4.604624e-05 0 -1.187986e-09)
(-4.864222e-05 6.260899e-05 0 -2.519099e-05 0 -1.013691e-10)
(5.156785e-05 2.156779e-05 0 2.006838e-05 0 -2.420284e-10)
(2.244433 0.04810606 0 3.766126e-05 0 1.317521e-05)
(2.227063 0.0479956 0 4.309622e-05 0 1.392734e-05)
(2.188853 0.04795369 0 7.331322e-05 0 1.555529e-05)
(2.121269 0.04805641 0 0.0001497623 0 1.607138e-05)
(2.017061 0.04821384 0 0.0002915238 0 1.266106e-05)
(1.884729 0.0484778 0 0.0005149609 0 6.150113e-06)
(1.744697 0.04904679 0 0.0008315012 0 3.015987e-07)
(1.611799 0.05003566 0 0.001253796 0 -3.069651e-06)
(1.491393 0.05141053 0 0.001792703 0 -4.425987e-06)
(1.384214 0.05307342 0 0.002456651 0 -4.582122e-06)
(1.289095 0.05490436 0 0.00325048 0 -4.154683e-06)
(1.204261 0.05677955 0 0.004174131 0 -3.516765e-06)
(1.127903 0.05858155 0 0.005221806 0 -2.866543e-06)
(1.058419 0.06020641 0 0.006381839 0 -2.292877e-06)
(0.9944886 0.06156842 0 0.007637263 0 -1.82297e-06)
(0.9350698 0.06260283 0 0.008966978 0 -1.454131e-06)
(0.8793659 0.063266 0 0.01034711 0 -1.16967e-06)
(0.8267724 0.0635326 0 0.01175169 0 -9.509658e-07)
(0.7768327 0.06339261 0 0.0131534 0 -7.81742e-07)
(0.7292016 0.06284897 0 0.01452436 0 -6.491001e-07)
(0.6836135 0.06191485 0 0.01583687 0 -5.432006e-07)
(0.6398621 0.06061129 0 0.017064 0 -4.566379e-07)
(0.5977808 0.05896502 0 0.01818014 0 -3.852824e-07)
(0.5572358 0.05700687 0 0.0191615 0 -3.25759e-07)
(0.5181169 0.05477025 0 0.01998653 0 -2.760412e-07)
(0.4803354 0.05229019 0 0.02063634 0 -2.345172e-07)
(0.4438209 0.04960248 0 0.02109498 0 -2.004601e-07)
(0.4085207 0.04674309 0 0.02134987 0 -1.722422e-07)
(0.3743992 0.04374778 0 0.02139204 0 -1.500158e-07)
(0.3414401 0.04065201 0 0.02121658 0 -1.326993e-07)
(0.3096459 0.03749093 0 0.02082303 0 -1.206767e-07)
(0.2790429 0.03429955 0 0.02021587 0 -1.130746e-07)
(0.249683 0.03111316 0 0.01940516 0 -1.098202e-07)
(0.2216465 0.02796778 0 0.01840727 0 -1.108892e-07)
(0.1950459 0.02490046 0 0.01724557 0 -1.153452e-07)
(0.1700254 0.02194946 0 0.01595103 0 -1.221878e-07)
(0.1467552 0.01915368 0 0.01456219 0 -1.298742e-07)
(0.1254182 0.01655103 0 0.01312412 0 -1.35911e-07)
(0.1061852 0.0141755 0 0.0116857 0 -1.379749e-07)
(0.08918191 0.0120532 0 0.01029512 0 -1.340492e-07)
(0.07445522 0.01019825 0 0.008994346 0 -1.237131e-07)
(0.06195154 0.008610256 0 0.007813871 0 -1.078854e-07)
(0.05151701 0.007274612 0 0.006769921 0 -8.904329e-08)
(0.04292153 0.006165761 0 0.005864885 0 -7.018953e-08)
(0.0358963 0.005252208 0 0.005090561 0 -5.314415e-08)
(0.03017055 0.004501431 0 0.004432561 0 -3.90101e-08)
(0.02549759 0.003883361 0 0.00387426 0 -2.827818e-08)
(0.0216673 0.003372147 0 0.003399454 0 -2.020986e-08)
(0.0185083 0.002946549 0 0.002993726 0 -1.434582e-08)
(0.0158843 0.002589582 0 0.002644888 0 -1.017635e-08)
(0.0136884 0.002287851 0 0.002342929 0 -7.400893e-09)
(0.01183711 0.002030828 0 0.002079731 0 -5.147347e-09)
(0.01026518 0.001810255 0 0.001848759 0 -3.653219e-09)
(0.008921457 0.001619615 0 0.001644743 0 -2.642208e-09)
(0.007765856 0.001453773 0 0.001463492 0 -1.799189e-09)
(0.006766254 0.001308595 0 0.001301506 0 -1.305794e-09)
(0.005895599 0.001180575 0 0.001155625 0 -9.393424e-10)
(0.005133366 0.001066959 0 0.001023885 0 -6.741443e-10)
(0.004462059 0.0009653353 0 0.0009045145 0 -3.947876e-10)
(0.003867137 0.000873661 0 0.0007958943 0 -2.560875e-10)
(0.003337073 0.0007902628 0 0.0006967141 0 -4.366689e-11)
(0.002862678 0.0007137517 0 0.0006059044 0 -2.129174e-11)
(0.00243663 0.0006429627 0 0.0005225949 0 -1.341772e-10)
(0.002053161 0.0005769143 0 0.0004460919 0 -6.083974e-11)
(0.001707854 0.0005147874 0 0.000375873 0 -1.364179e-12)
(0.0013974 0.0004559047 0 0.0003115505 0 -3.052713e-10)
(0.001119725 0.0003997482 0 0.0002529636 0 -5.472158e-10)
(0.0008729604 0.0003458956 0 0.0001998469 0 -8.855173e-10)
(0.000658228 0.0002942214 0 0.0001529145 0 -1.102435e-09)
(0.0004699643 0.0002443083 0 0.0001102746 0 -9.030059e-10)
(0.0003243198 0.000196921 0 7.841204e-05 0 3.884317e-10)
(0.0001744687 0.0001501329 0 3.918094e-05 0 1.978792e-09)
(0.000154138 0.0001079839 0 4.604624e-05 0 -1.187986e-09)
(-4.864222e-05 6.260899e-05 0 -2.519099e-05 0 -1.013691e-10)
(5.156785e-05 2.156779e-05 0 2.006838e-05 0 -2.420284e-10)
)
;
    }
    wall
    {
        type            calculated;
        value           nonuniform List<symmTensor> 2((2.244269 0.04810362 0 3.762489e-05 0 1.313914e-05) (2.244596 0.0481085 0 3.769764e-05 0 1.321128e-05));
    }
    frontAndBack
    {
        type            empty;
    }
    middle
    {
        type            symmetryPlane;
        value           nonuniform List<symmTensor> 2((5.157029e-05 0 0 2.006915e-05 0 7.076357e-10) (5.15654e-05 0 0 2.006761e-05 0 -1.191692e-09));
    }
}


// ************************************************************************* //
