/*--------------------------------*- C++ -*----------------------------------*\
| =========                 |                                                 |
| \\      /  F ield         | foam-extend: Open Source CFD                    |
|  \\    /   O peration     | Version:     4.0                                |
|   \\  /    A nd           | Web:         http://www.foam-extend.org         |
|    \\/     M anipulation  |                                                 |
\*---------------------------------------------------------------------------*/
FoamFile
{
    version     2.0;
    format      ascii;
    class       volScalarField;
    location    "100";
    object      trC;
}
// * * * * * * * * * * * * * * * * * * * * * * * * * * * * * * * * * * * * * //

dimensions      [0 0 0 0 0 0 0];

internalField   nonuniform List<scalar> 
150
(
500.7734
500.8057
499.0646
499.072
495.2305
495.2315
488.263
488.2628
477.0384
477.0378
461.8755
461.8747
444.6099
444.6092
426.9336
426.933
409.7146
409.714
393.3265
393.326
377.8715
377.8711
363.3086
363.3082
349.5287
349.5284
336.4003
336.4001
323.7944
323.7941
311.5966
311.5963
299.7128
299.7126
288.0669
288.0666
276.5989
276.5987
265.2617
265.2616
254.0179
254.0178
242.8373
242.8372
231.6944
231.6944
220.5681
220.568
209.4402
209.4402
198.2965
198.2964
187.1258
187.1258
175.922
175.922
164.6841
164.6842
153.4182
153.4182
142.1386
142.1387
130.8713
130.8714
119.6562
119.6563
108.5502
108.5502
97.63107
97.63114
86.99932
86.99938
76.77773
76.77779
67.10607
67.10612
58.12887
58.12893
49.97648
49.97652
42.7431
42.74313
36.46914
36.46918
31.1352
31.13523
26.6703
26.67033
22.97035
22.97037
19.91862
19.91863
17.40195
17.40196
15.32001
15.32002
13.58868
13.58868
12.13962
12.13962
10.91842
10.91842
9.882015
9.882016
8.99642
8.996421
8.23476
8.23476
7.575828
7.575829
7.002493
7.002493
6.500148
6.500148
6.057903
6.057902
5.666393
5.666393
5.317739
5.31774
5.005676
5.005676
4.725186
4.725186
4.47226
4.47226
4.243734
4.243734
4.03719
4.03719
3.850819
3.850819
3.683534
3.683536
3.534296
3.534298
3.404036
3.404037
3.289059
3.289059
3.200651
3.200649
3.106457
3.106457
3.099747
3.099747
3
3
3.035699
3.035695
)
;

boundaryField
{
    leftandright
    {
        type            cyclic;
        value           nonuniform List<scalar> 
150
(
500.7896
499.0683
495.231
488.2629
477.0381
461.8751
444.6096
426.9333
409.7143
393.3262
377.8713
363.3084
349.5286
336.4002
323.7942
311.5965
299.7127
288.0668
276.5988
265.2616
254.0178
242.8373
231.6944
220.568
209.4402
198.2964
187.1258
175.922
164.6841
153.4182
142.1386
130.8713
119.6562
108.5502
97.6311
86.99935
76.77776
67.1061
58.1289
49.9765
42.74311
36.46916
31.13521
26.67031
22.97036
19.91862
17.40195
15.32002
13.58868
12.13962
10.91842
9.882016
8.996421
8.23476
7.575829
7.002493
6.500148
6.057903
5.666393
5.31774
5.005676
4.725186
4.47226
4.243734
4.03719
3.850819
3.683535
3.534297
3.404037
3.289059
3.20065
3.106457
3.099747
3
3.035697
500.7896
499.0683
495.231
488.2629
477.0381
461.8751
444.6096
426.9333
409.7143
393.3262
377.8713
363.3084
349.5286
336.4002
323.7942
311.5965
299.7127
288.0668
276.5988
265.2616
254.0178
242.8373
231.6944
220.568
209.4402
198.2964
187.1258
175.922
164.6841
153.4182
142.1386
130.8713
119.6562
108.5502
97.6311
86.99935
76.77776
67.1061
58.1289
49.9765
42.74311
36.46916
31.13521
26.67031
22.97036
19.91862
17.40195
15.32002
13.58868
12.13962
10.91842
9.882016
8.996421
8.23476
7.575829
7.002493
6.500148
6.057903
5.666393
5.31774
5.005676
4.725186
4.47226
4.243734
4.03719
3.850819
3.683535
3.534297
3.404037
3.289059
3.20065
3.106457
3.099747
3
3.035697
)
;
    }
    wall
    {
        type            calculated;
        value           nonuniform List<scalar> 2(500.7734 500.8057);
    }
    frontAndBack
    {
        type            empty;
    }
    middle
    {
        type            symmetryPlane;
        value           nonuniform List<scalar> 2(3.035699 3.035695);
    }
}


// ************************************************************************* //
