/*--------------------------------*- C++ -*----------------------------------*\
| =========                 |                                                 |
| \\      /  F ield         | foam-extend: Open Source CFD                    |
|  \\    /   O peration     | Version:     4.0                                |
|   \\  /    A nd           | Web:         http://www.foam-extend.org         |
|    \\/     M anipulation  |                                                 |
\*---------------------------------------------------------------------------*/
FoamFile
{
    version     2.0;
    format      ascii;
    class       volVectorField;
    location    "100";
    object      U;
}
// * * * * * * * * * * * * * * * * * * * * * * * * * * * * * * * * * * * * * //

dimensions      [0 1 -1 0 0 0 0];

internalField   nonuniform List<vector> 
150
(
(0.6574323 0.0001750505 0)
(0.6574301 0.0001750436 0)
(2.000344 0.0003156082 0)
(2.00034 0.0003156026 0)
(3.389704 7.006222e-05 0)
(3.389702 7.006693e-05 0)
(4.798468 -0.0001460575 0)
(4.798466 -0.0001460563 0)
(6.180833 -0.000225989 0)
(6.180833 -0.0002259895 0)
(7.482908 -0.0001973343 0)
(7.482908 -0.0001973349 0)
(8.675789 -0.0001378423 0)
(8.675789 -0.0001378427 0)
(9.753719 -8.628443e-05 0)
(9.753719 -8.628493e-05 0)
(10.721 -4.760308e-05 0)
(10.721 -4.760361e-05 0)
(11.58693 -2.119236e-05 0)
(11.58693 -2.119301e-05 0)
(12.36278 -4.539379e-06 0)
(12.36278 -4.540188e-06 0)
(13.05995 5.242391e-06 0)
(13.05995 5.241615e-06 0)
(13.68915 1.060472e-05 0)
(13.68915 1.060382e-05 0)
(14.25989 1.330703e-05 0)
(14.25989 1.330595e-05 0)
(14.78049 1.440705e-05 0)
(14.78049 1.4406e-05 0)
(15.25801 1.417879e-05 0)
(15.25801 1.417777e-05 0)
(15.69846 1.300064e-05 0)
(15.69846 1.299952e-05 0)
(16.10686 1.154117e-05 0)
(16.10686 1.154e-05 0)
(16.48745 1.010578e-05 0)
(16.48745 1.010463e-05 0)
(16.8438 8.796585e-06 0)
(16.8438 8.795448e-06 0)
(17.17893 7.639133e-06 0)
(17.17893 7.638051e-06 0)
(17.49542 6.63254e-06 0)
(17.49542 6.631556e-06 0)
(17.79545 5.765313e-06 0)
(17.79545 5.764339e-06 0)
(18.08091 5.021892e-06 0)
(18.08091 5.021018e-06 0)
(18.35342 4.385826e-06 0)
(18.35342 4.385062e-06 0)
(18.61441 3.841982e-06 0)
(18.61441 3.841267e-06 0)
(18.86509 3.376693e-06 0)
(18.86509 3.376193e-06 0)
(19.10654 2.977608e-06 0)
(19.10654 2.977259e-06 0)
(19.33971 2.634395e-06 0)
(19.33971 2.634093e-06 0)
(19.56544 2.337792e-06 0)
(19.56544 2.337605e-06 0)
(19.78446 2.079667e-06 0)
(19.78446 2.079704e-06 0)
(19.99743 1.853795e-06 0)
(19.99743 1.853928e-06 0)
(20.20494 1.655691e-06 0)
(20.20494 1.655846e-06 0)
(20.4075 1.483371e-06 0)
(20.4075 1.483807e-06 0)
(20.6056 1.339903e-06 0)
(20.6056 1.340369e-06 0)
(20.79963 1.234277e-06 0)
(20.79963 1.234648e-06 0)
(20.98997 1.180978e-06 0)
(20.98997 1.181504e-06 0)
(21.17694 1.19676e-06 0)
(21.17694 1.197288e-06 0)
(21.36083 1.290477e-06 0)
(21.36083 1.291029e-06 0)
(21.5419 1.452704e-06 0)
(21.5419 1.453216e-06 0)
(21.72037 1.650504e-06 0)
(21.72037 1.650948e-06 0)
(21.89643 1.836373e-06 0)
(21.89643 1.836804e-06 0)
(22.07025 1.968067e-06 0)
(22.07025 1.968448e-06 0)
(22.24201 2.025649e-06 0)
(22.24201 2.025989e-06 0)
(22.41184 2.014645e-06 0)
(22.41184 2.014932e-06 0)
(22.57987 1.955473e-06 0)
(22.57987 1.955712e-06 0)
(22.74622 1.87e-06 0)
(22.74622 1.870228e-06 0)
(22.91101 1.773545e-06 0)
(22.91101 1.77374e-06 0)
(23.07432 1.673396e-06 0)
(23.07432 1.673546e-06 0)
(23.23623 1.570698e-06 0)
(23.23623 1.570834e-06 0)
(23.39682 1.462927e-06 0)
(23.39682 1.463077e-06 0)
(23.55612 1.346817e-06 0)
(23.55612 1.346962e-06 0)
(23.71419 1.207312e-06 0)
(23.71419 1.207457e-06 0)
(23.87104 1.001798e-06 0)
(23.87104 1.001947e-06 0)
(24.02666 6.095662e-07 0)
(24.02666 6.09723e-07 0)
(24.18106 1.553721e-06 0)
(24.18106 1.553892e-06 0)
(24.33419 2.851378e-06 0)
(24.33419 2.851528e-06 0)
(24.486 2.624584e-06 0)
(24.486 2.624756e-06 0)
(24.63634 2.291463e-06 0)
(24.63634 2.291622e-06 0)
(24.78502 2.10647e-06 0)
(24.78502 2.106573e-06 0)
(24.93173 1.988492e-06 0)
(24.93173 1.988595e-06 0)
(25.07608 1.919943e-06 0)
(25.07608 1.920022e-06 0)
(25.21758 1.890111e-06 0)
(25.21758 1.89017e-06 0)
(25.35559 1.90493e-06 0)
(25.35559 1.904968e-06 0)
(25.48934 1.864348e-06 0)
(25.48934 1.864367e-06 0)
(25.61793 2.09605e-06 0)
(25.61793 2.096048e-06 0)
(25.74026 1.088699e-06 0)
(25.74026 1.088673e-06 0)
(25.85511 4.636568e-06 0)
(25.85511 4.636516e-06 0)
(25.9611 -9.257124e-06 0)
(25.9611 -9.257198e-06 0)
(26.05677 3.808039e-05 0)
(26.05677 3.808029e-05 0)
(26.14059 -0.0001214625 0)
(26.14059 -0.0001214625 0)
(26.21104 0.000384692 0)
(26.21104 0.000384692 0)
(26.26658 -0.001198512 0)
(26.26658 -0.001198512 0)
(26.30563 0.003536356 0)
(26.30563 0.003536356 0)
(26.32636 -0.006693108 0)
(26.32636 -0.006693108 0)
)
;

boundaryField
{
    leftandright
    {
        type            cyclic;
        value           nonuniform List<vector> 
150
(
(0.6574312 0.000175047 0)
(2.000342 0.0003156054 0)
(3.389703 7.006458e-05 0)
(4.798467 -0.0001460569 0)
(6.180833 -0.0002259893 0)
(7.482908 -0.0001973346 0)
(8.675789 -0.0001378425 0)
(9.753719 -8.628468e-05 0)
(10.721 -4.760334e-05 0)
(11.58693 -2.119268e-05 0)
(12.36278 -4.539784e-06 0)
(13.05995 5.242003e-06 0)
(13.68915 1.060427e-05 0)
(14.25989 1.330649e-05 0)
(14.78049 1.440652e-05 0)
(15.25801 1.417828e-05 0)
(15.69846 1.300008e-05 0)
(16.10686 1.154058e-05 0)
(16.48745 1.01052e-05 0)
(16.8438 8.796017e-06 0)
(17.17893 7.638592e-06 0)
(17.49542 6.632048e-06 0)
(17.79545 5.764826e-06 0)
(18.08091 5.021455e-06 0)
(18.35342 4.385444e-06 0)
(18.61441 3.841624e-06 0)
(18.86509 3.376443e-06 0)
(19.10654 2.977434e-06 0)
(19.33971 2.634244e-06 0)
(19.56544 2.337699e-06 0)
(19.78446 2.079685e-06 0)
(19.99743 1.853861e-06 0)
(20.20494 1.655769e-06 0)
(20.4075 1.483589e-06 0)
(20.6056 1.340136e-06 0)
(20.79963 1.234463e-06 0)
(20.98997 1.181241e-06 0)
(21.17694 1.197024e-06 0)
(21.36083 1.290753e-06 0)
(21.5419 1.45296e-06 0)
(21.72037 1.650726e-06 0)
(21.89643 1.836588e-06 0)
(22.07025 1.968258e-06 0)
(22.24201 2.025819e-06 0)
(22.41184 2.014788e-06 0)
(22.57987 1.955592e-06 0)
(22.74622 1.870114e-06 0)
(22.91101 1.773643e-06 0)
(23.07432 1.673471e-06 0)
(23.23623 1.570766e-06 0)
(23.39682 1.463002e-06 0)
(23.55612 1.346889e-06 0)
(23.71419 1.207384e-06 0)
(23.87104 1.001873e-06 0)
(24.02666 6.096446e-07 0)
(24.18106 1.553806e-06 0)
(24.33419 2.851453e-06 0)
(24.486 2.62467e-06 0)
(24.63634 2.291542e-06 0)
(24.78502 2.106522e-06 0)
(24.93173 1.988544e-06 0)
(25.07608 1.919982e-06 0)
(25.21758 1.890141e-06 0)
(25.35559 1.904949e-06 0)
(25.48934 1.864357e-06 0)
(25.61793 2.096049e-06 0)
(25.74026 1.088686e-06 0)
(25.85511 4.636542e-06 0)
(25.9611 -9.257161e-06 0)
(26.05677 3.808034e-05 0)
(26.14059 -0.0001214625 0)
(26.21104 0.000384692 0)
(26.26658 -0.001198512 0)
(26.30563 0.003536356 0)
(26.32636 -0.006693108 0)
(0.6574312 0.000175047 0)
(2.000342 0.0003156054 0)
(3.389703 7.006458e-05 0)
(4.798467 -0.0001460569 0)
(6.180833 -0.0002259893 0)
(7.482908 -0.0001973346 0)
(8.675789 -0.0001378425 0)
(9.753719 -8.628468e-05 0)
(10.721 -4.760334e-05 0)
(11.58693 -2.119268e-05 0)
(12.36278 -4.539784e-06 0)
(13.05995 5.242003e-06 0)
(13.68915 1.060427e-05 0)
(14.25989 1.330649e-05 0)
(14.78049 1.440652e-05 0)
(15.25801 1.417828e-05 0)
(15.69846 1.300008e-05 0)
(16.10686 1.154058e-05 0)
(16.48745 1.01052e-05 0)
(16.8438 8.796017e-06 0)
(17.17893 7.638592e-06 0)
(17.49542 6.632048e-06 0)
(17.79545 5.764826e-06 0)
(18.08091 5.021455e-06 0)
(18.35342 4.385444e-06 0)
(18.61441 3.841624e-06 0)
(18.86509 3.376443e-06 0)
(19.10654 2.977434e-06 0)
(19.33971 2.634244e-06 0)
(19.56544 2.337699e-06 0)
(19.78446 2.079685e-06 0)
(19.99743 1.853861e-06 0)
(20.20494 1.655769e-06 0)
(20.4075 1.483589e-06 0)
(20.6056 1.340136e-06 0)
(20.79963 1.234463e-06 0)
(20.98997 1.181241e-06 0)
(21.17694 1.197024e-06 0)
(21.36083 1.290753e-06 0)
(21.5419 1.45296e-06 0)
(21.72037 1.650726e-06 0)
(21.89643 1.836588e-06 0)
(22.07025 1.968258e-06 0)
(22.24201 2.025819e-06 0)
(22.41184 2.014788e-06 0)
(22.57987 1.955592e-06 0)
(22.74622 1.870114e-06 0)
(22.91101 1.773643e-06 0)
(23.07432 1.673471e-06 0)
(23.23623 1.570766e-06 0)
(23.39682 1.463002e-06 0)
(23.55612 1.346889e-06 0)
(23.71419 1.207384e-06 0)
(23.87104 1.001873e-06 0)
(24.02666 6.096446e-07 0)
(24.18106 1.553806e-06 0)
(24.33419 2.851453e-06 0)
(24.486 2.62467e-06 0)
(24.63634 2.291542e-06 0)
(24.78502 2.106522e-06 0)
(24.93173 1.988544e-06 0)
(25.07608 1.919982e-06 0)
(25.21758 1.890141e-06 0)
(25.35559 1.904949e-06 0)
(25.48934 1.864357e-06 0)
(25.61793 2.096049e-06 0)
(25.74026 1.088686e-06 0)
(25.85511 4.636542e-06 0)
(25.9611 -9.257161e-06 0)
(26.05677 3.808034e-05 0)
(26.14059 -0.0001214625 0)
(26.21104 0.000384692 0)
(26.26658 -0.001198512 0)
(26.30563 0.003536356 0)
(26.32636 -0.006693108 0)
)
;
    }
    wall
    {
        type            fixedValue;
        value           uniform (0 0 0);
    }
    frontAndBack
    {
        type            empty;
    }
    middle
    {
        type            symmetryPlane;
        value           nonuniform List<vector> 2((26.32636 0 0) (26.32636 0 0));
    }
}


// ************************************************************************* //
