/*--------------------------------*- C++ -*----------------------------------*\
| =========                 |                                                 |
| \\      /  F ield         | foam-extend: Open Source CFD                    |
|  \\    /   O peration     | Version:     4.0                                |
|   \\  /    A nd           | Web:         http://www.foam-extend.org         |
|    \\/     M anipulation  |                                                 |
\*---------------------------------------------------------------------------*/
FoamFile
{
    version     2.0;
    format      ascii;
    class       volScalarField;
    location    "100";
    object      v2;
}
// * * * * * * * * * * * * * * * * * * * * * * * * * * * * * * * * * * * * * //

dimensions      [0 2 -2 0 0 0 0];

internalField   nonuniform List<scalar> 
150
(
3.317245e-05
3.317247e-05
0.001406645
0.001406646
0.006925048
0.006925051
0.018416
0.018416
0.03613486
0.03613487
0.05920851
0.05920853
0.08637162
0.08637165
0.1164174
0.1164175
0.1482849
0.1482849
0.1811178
0.1811178
0.2142649
0.2142649
0.2472511
0.2472512
0.2797424
0.2797425
0.311514
0.3115141
0.3424268
0.3424269
0.3724111
0.3724112
0.4014549
0.401455
0.4295741
0.4295742
0.4567967
0.4567968
0.4831542
0.4831543
0.5086768
0.5086769
0.5333912
0.5333913
0.5573191
0.5573192
0.5804767
0.5804768
0.6028748
0.6028749
0.6245184
0.6245185
0.6454072
0.6454073
0.6655358
0.6655359
0.6848936
0.6848937
0.7034658
0.7034659
0.7212327
0.7212328
0.7381708
0.7381709
0.7542526
0.7542526
0.7694468
0.7694468
0.783719
0.7837191
0.7970319
0.7970319
0.8093454
0.8093454
0.8206177
0.8206177
0.8308056
0.8308057
0.8398656
0.8398656
0.8477541
0.8477542
0.8544289
0.8544289
0.8598491
0.8598492
0.863976
0.8639761
0.8667729
0.8667729
0.8682049
0.8682049
0.8682388
0.8682389
0.8668427
0.8668427
0.8639849
0.8639849
0.8596338
0.8596338
0.8537564
0.8537564
0.8463171
0.8463171
0.8372755
0.8372755
0.8265835
0.8265835
0.8141808
0.8141808
0.7999883
0.7999883
0.7838977
0.7838977
0.7660105
0.7660105
0.7464762
0.7464761
0.7254438
0.7254437
0.7030692
0.7030691
0.6795228
0.6795227
0.654998
0.654998
0.6297204
0.6297203
0.603957
0.6039569
0.5780257
0.5780256
0.5523023
0.5523022
0.5272243
0.5272242
0.503288
0.503288
0.4810381
0.481038
0.4610476
0.4610476
0.4438966
0.4438966
0.4301521
0.4301521
0.4203779
0.4203779
0.4151473
0.4151473
)
;

boundaryField
{
    leftandright
    {
        type            cyclic;
        value           nonuniform List<scalar> 
150
(
3.317246e-05
0.001406645
0.006925049
0.018416
0.03613486
0.05920852
0.08637163
0.1164175
0.1482849
0.1811178
0.2142649
0.2472512
0.2797424
0.311514
0.3424268
0.3724112
0.401455
0.4295742
0.4567968
0.4831542
0.5086768
0.5333912
0.5573191
0.5804768
0.6028749
0.6245185
0.6454073
0.6655358
0.6848937
0.7034658
0.7212328
0.7381709
0.7542526
0.7694468
0.783719
0.7970319
0.8093454
0.8206177
0.8308056
0.8398656
0.8477541
0.8544289
0.8598491
0.863976
0.8667729
0.8682049
0.8682389
0.8668427
0.8639849
0.8596338
0.8537564
0.8463171
0.8372755
0.8265835
0.8141808
0.7999883
0.7838977
0.7660105
0.7464762
0.7254438
0.7030692
0.6795228
0.654998
0.6297203
0.603957
0.5780256
0.5523023
0.5272242
0.503288
0.481038
0.4610476
0.4438966
0.4301521
0.4203779
0.4151473
3.317246e-05
0.001406645
0.006925049
0.018416
0.03613486
0.05920852
0.08637163
0.1164175
0.1482849
0.1811178
0.2142649
0.2472512
0.2797424
0.311514
0.3424268
0.3724112
0.401455
0.4295742
0.4567968
0.4831542
0.5086768
0.5333912
0.5573191
0.5804768
0.6028749
0.6245185
0.6454073
0.6655358
0.6848937
0.7034658
0.7212328
0.7381709
0.7542526
0.7694468
0.783719
0.7970319
0.8093454
0.8206177
0.8308056
0.8398656
0.8477541
0.8544289
0.8598491
0.863976
0.8667729
0.8682049
0.8682389
0.8668427
0.8639849
0.8596338
0.8537564
0.8463171
0.8372755
0.8265835
0.8141808
0.7999883
0.7838977
0.7660105
0.7464762
0.7254438
0.7030692
0.6795228
0.654998
0.6297203
0.603957
0.5780256
0.5523023
0.5272242
0.503288
0.481038
0.4610476
0.4438966
0.4301521
0.4203779
0.4151473
)
;
    }
    wall
    {
        type            fixedValue;
        value           uniform 1e-10;
    }
    frontAndBack
    {
        type            empty;
    }
    middle
    {
        type            symmetryPlane;
        value           nonuniform List<scalar> 2(0.4151473 0.4151473);
    }
}


// ************************************************************************* //
