/*--------------------------------*- C++ -*----------------------------------*\
| =========                 |                                                 |
| \\      /  F ield         | foam-extend: Open Source CFD                    |
|  \\    /   O peration     | Version:     4.0                                |
|   \\  /    A nd           | Web:         http://www.foam-extend.org         |
|    \\/     M anipulation  |                                                 |
\*---------------------------------------------------------------------------*/
FoamFile
{
    version     2.0;
    format      ascii;
    class       volScalarField;
    location    "100";
    object      yPlus;
}
// * * * * * * * * * * * * * * * * * * * * * * * * * * * * * * * * * * * * * //

dimensions      [0 -1 1 0 0 0 0];

internalField   nonuniform List<scalar> 
150
(
0.6226546
0.6226546
1.89979
1.89979
3.242203
3.242203
4.653231
4.653231
6.136382
6.136382
7.695341
7.695341
9.333983
9.333983
11.05638
11.05638
12.86682
12.86682
14.76979
14.76979
16.77003
16.77003
18.87251
18.87251
21.08245
21.08245
23.40535
23.40535
25.84698
25.84698
28.41341
28.41341
31.11101
31.11101
33.9465
33.9465
36.92692
36.92692
40.05968
40.05968
43.35257
43.35257
46.81376
46.81376
50.45187
50.45187
54.27593
54.27593
58.29545
58.29545
62.52043
62.52043
66.96135
66.96135
71.62926
71.62926
76.53577
76.53577
81.69306
81.69306
87.11396
87.11396
92.81193
92.81193
98.80115
98.80115
105.0965
105.0965
111.7136
111.7136
118.669
118.669
125.9798
125.9798
133.6643
133.6643
141.7416
141.7416
150.2318
150.2318
159.1559
159.1559
168.5362
168.5362
178.3959
178.3959
188.7596
188.7596
199.653
199.653
211.1032
211.1032
223.1387
223.1387
235.7893
235.7893
249.0865
249.0865
263.0634
263.0634
277.7547
277.7547
293.197
293.197
309.4285
309.4285
326.4896
326.4896
344.4229
344.4229
363.2727
363.2727
383.086
383.086
403.912
403.912
425.8026
425.8026
448.812
448.812
472.9975
472.9975
498.4192
498.4192
525.1402
525.1402
553.2271
553.2271
582.7496
582.7496
613.781
613.781
646.3986
646.3986
680.6834
680.6834
716.7205
716.7205
754.5997
754.5997
794.4149
794.4149
836.2653
836.2653
880.2547
880.2547
926.4926
926.4926
975.0938
975.0938
)
;

boundaryField
{
    leftandright
    {
        type            cyclic;
        value           nonuniform List<scalar> 
150
(
25.00775
25.07208
25.20936
25.42936
25.74209
26.15757
26.68564
27.33576
28.11681
29.03699
30.10372
31.32366
32.70275
34.24632
35.95923
37.84603
39.91109
42.15881
44.5937
47.22053
50.04443
53.07098
56.30623
59.75681
63.42996
67.33353
71.47603
75.86667
80.51536
85.43276
90.63025
96.12
101.915
108.029
114.4768
121.2737
128.4364
135.9822
143.9295
152.2977
161.1075
170.3803
180.1391
190.408
201.2121
212.5784
224.5348
237.1109
250.338
264.2487
278.8776
294.2609
310.4368
327.4454
345.329
364.1319
383.9009
404.685
426.5358
449.5077
473.6577
499.0457
525.735
553.7917
583.2856
614.29
646.8819
681.1423
717.1564
755.0137
794.8082
836.6389
880.6096
926.8298
975.4142
25.00775
25.07208
25.20936
25.42936
25.74209
26.15757
26.68564
27.33576
28.11681
29.03699
30.10372
31.32366
32.70275
34.24632
35.95923
37.84603
39.91109
42.15881
44.5937
47.22053
50.04443
53.07098
56.30623
59.75681
63.42996
67.33353
71.47603
75.86667
80.51536
85.43276
90.63025
96.12
101.915
108.029
114.4768
121.2737
128.4364
135.9822
143.9295
152.2977
161.1075
170.3803
180.1391
190.408
201.2121
212.5784
224.5348
237.1109
250.338
264.2487
278.8776
294.2609
310.4368
327.4454
345.329
364.1319
383.9009
404.685
426.5358
449.5077
473.6577
499.0457
525.735
553.7917
583.2856
614.29
646.8819
681.1423
717.1564
755.0137
794.8082
836.6389
880.6096
926.8298
975.4142
)
;
    }
    wall
    {
        type            calculated;
        value           uniform 1e-12;
    }
    frontAndBack
    {
        type            empty;
    }
    middle
    {
        type            symmetryPlane;
        value           uniform 1000;
    }
}


// ************************************************************************* //
